/*--------------------------------*- C++ -*----------------------------------*\
| =========                 |                                                 |
| \\      /  F ield         | foam-extend: Open Source CFD                    |
|  \\    /   O peration     | Version:     4.1                                |
|   \\  /    A nd           | Web:         http://www.foam-extend.org         |
|    \\/     M anipulation  |                                                 |
\*---------------------------------------------------------------------------*/
FoamFile
{
    version     2.0;
    format      ascii;
    class       volScalarField;
    location    "0.0004";
    object      eMoins;
}
// * * * * * * * * * * * * * * * * * * * * * * * * * * * * * * * * * * * * * //

dimensions      [0 0 0 0 0 0 0];

internalField   nonuniform List<scalar> 
8400
(
9.91207425956e-163
9.91207425962e-163
9.91207425968e-163
9.91207425974e-163
9.9120742598e-163
9.91207425986e-163
9.91207425991e-163
9.91207425997e-163
9.91207426002e-163
9.91207426008e-163
9.91207426013e-163
9.91207426018e-163
9.91207426023e-163
9.91207426028e-163
9.91207426033e-163
9.91207426038e-163
9.91207426042e-163
9.91207426047e-163
9.91207426051e-163
9.91207426056e-163
9.91207426061e-163
9.91207426121e-163
9.91207429483e-163
9.9120763306e-163
9.91219449709e-163
9.91919482669e-163
1.00728917396e-162
9.87197982821e-63
1.12752579209e-11
4.58287069966e-08
1.02945957731e-05
1.94693362071e-05
2.41494687042e-05
2.61166071915e-05
2.68779872411e-05
2.71437868415e-05
2.72388409854e-05
2.72884668708e-05
2.73274480493e-05
2.73637470485e-05
2.73962951779e-05
2.74323048347e-05
2.74688068972e-05
2.75061947368e-05
2.75449166377e-05
2.75853014692e-05
2.76275704882e-05
2.76718220713e-05
2.77150846464e-05
2.77637792109e-05
2.7814638229e-05
2.78677589693e-05
2.79227989745e-05
2.79799047717e-05
2.80386998554e-05
2.80986467435e-05
2.81561019657e-05
2.8216927091e-05
2.82773890742e-05
2.83368733203e-05
2.83943572315e-05
2.84492257968e-05
2.85007024151e-05
2.85480832599e-05
2.85868634204e-05
2.86232903808e-05
2.86532668566e-05
2.86762336789e-05
2.86917510915e-05
2.87142938623e-05
9.91207424566e-163
9.91207424569e-163
9.91207424571e-163
9.91207424573e-163
9.91207424576e-163
9.91207424578e-163
9.9120742458e-163
9.91207424582e-163
9.91207424585e-163
9.91207424587e-163
9.91207424589e-163
9.91207424591e-163
9.91207424593e-163
9.91207424595e-163
9.91207424597e-163
9.91207424599e-163
9.91207424601e-163
9.91207424603e-163
9.91207424605e-163
9.91207424607e-163
9.91207424614e-163
9.91207424938e-163
9.91207444405e-163
9.91208618639e-163
9.91275834441e-163
9.95196298226e-163
1.04829492667e-162
1.3964367361e-18
4.28405700067e-09
3.34330140719e-06
1.49899289107e-05
2.21426321174e-05
2.54520573044e-05
2.6753008409e-05
2.72241178643e-05
2.73704649006e-05
2.74237065237e-05
2.74616277704e-05
2.74937879134e-05
2.7526761781e-05
2.75611330842e-05
2.75971171498e-05
2.76349820453e-05
2.76747206173e-05
2.77162423851e-05
2.77598638172e-05
2.78057667642e-05
2.7853830799e-05
2.79040586564e-05
2.795646953e-05
2.80108668822e-05
2.80642797026e-05
2.81222951714e-05
2.81818244151e-05
2.82426976816e-05
2.83041639713e-05
2.83657365191e-05
2.84272012872e-05
2.8487521842e-05
2.85462593129e-05
2.86027514187e-05
2.8656195581e-05
2.87057354529e-05
2.87478493222e-05
2.8787990167e-05
2.88221897168e-05
2.88501402124e-05
2.88715484049e-05
2.88861746308e-05
2.89023283421e-05
9.91207424013e-163
9.91207424014e-163
9.91207424015e-163
9.91207424017e-163
9.91207424018e-163
9.9120742402e-163
9.91207424021e-163
9.91207424022e-163
9.91207424024e-163
9.91207424025e-163
9.91207424026e-163
9.91207424028e-163
9.91207424029e-163
9.9120742403e-163
9.91207424031e-163
9.91207424033e-163
9.91207424034e-163
9.91207424035e-163
9.91207424036e-163
9.91207424038e-163
9.91207424066e-163
9.91207425743e-163
9.91207529372e-163
9.91213707848e-163
9.91582638955e-163
1.00243148432e-162
4.78370485335e-63
9.79890872691e-13
1.86142194449e-08
8.63819770978e-06
1.86955502833e-05
2.39787128992e-05
2.6237327012e-05
2.70903564726e-05
2.73735486023e-05
2.74608347844e-05
2.75018825274e-05
2.75316552121e-05
2.75612120704e-05
2.75921636139e-05
2.76249781267e-05
2.76597639133e-05
2.76965022218e-05
2.77353498974e-05
2.77765238766e-05
2.78200854925e-05
2.78658442455e-05
2.7913987237e-05
2.7964452937e-05
2.80169430411e-05
2.80714118265e-05
2.81277461221e-05
2.81860418688e-05
2.82425499721e-05
2.83029248475e-05
2.83635308208e-05
2.84241554514e-05
2.84839333191e-05
2.85424914011e-05
2.85992711325e-05
2.86535429834e-05
2.87044159076e-05
2.87515331649e-05
2.87941935743e-05
2.88317851917e-05
2.88608608616e-05
2.88871700027e-05
2.89071059501e-05
2.8920599083e-05
2.89344690687e-05
9.91207423724e-163
9.91207423725e-163
9.91207423726e-163
9.91207423727e-163
9.91207423728e-163
9.91207423729e-163
9.9120742373e-163
9.91207423731e-163
9.91207423732e-163
9.91207423733e-163
9.91207423734e-163
9.91207423735e-163
9.91207423735e-163
9.91207423736e-163
9.91207423737e-163
9.91207423738e-163
9.91207423739e-163
9.9120742374e-163
9.91207423741e-163
9.91207423743e-163
9.91207423865e-163
9.9120743139e-163
9.91207898122e-163
9.912353187e-163
9.9287708328e-163
1.02137502804e-162
2.10613605432e-39
1.22710398271e-09
8.49731624145e-07
1.27292873724e-05
2.10320977455e-05
2.50082831415e-05
2.66238283252e-05
2.72079067511e-05
2.73932777818e-05
2.74524542894e-05
2.74908776895e-05
2.75222453068e-05
2.75540664457e-05
2.75872658506e-05
2.76221832743e-05
2.76589603238e-05
2.76975938381e-05
2.77382336937e-05
2.77811686014e-05
2.78263948309e-05
2.78737810124e-05
2.79234979979e-05
2.79754421398e-05
2.80292468538e-05
2.80849565176e-05
2.81395569461e-05
2.81985266254e-05
2.82587329653e-05
2.83192659489e-05
2.83799710416e-05
2.84403428079e-05
2.8499662515e-05
2.85575043048e-05
2.86133488457e-05
2.86664684981e-05
2.87129649477e-05
2.8758758745e-05
2.88000868475e-05
2.88363382734e-05
2.88672181269e-05
2.88923735841e-05
2.89114864742e-05
2.89244015714e-05
2.89371120471e-05
9.91207423552e-163
9.91207423553e-163
9.91207423553e-163
9.91207423554e-163
9.91207423555e-163
9.91207423556e-163
9.91207423557e-163
9.91207423557e-163
9.91207423558e-163
9.91207423559e-163
9.91207423559e-163
9.9120742356e-163
9.91207423561e-163
9.91207423562e-163
9.91207423562e-163
9.91207423563e-163
9.91207423564e-163
9.91207423564e-163
9.91207423565e-163
9.91207423572e-163
9.91207423953e-163
9.91207447048e-163
9.91208842455e-163
9.91288902842e-163
9.95950662588e-163
1.05676636343e-162
1.03158774145e-17
5.20751347308e-09
4.00793981814e-06
1.55313047993e-05
2.24309967154e-05
2.55427978263e-05
2.67706718947e-05
2.72022946645e-05
2.73350622624e-05
2.73861536379e-05
2.74223816936e-05
2.74599597614e-05
2.74952026289e-05
2.75319765936e-05
2.75703639666e-05
2.76105727694e-05
2.76528385427e-05
2.7697061713e-05
2.77432866878e-05
2.77917741625e-05
2.78424485225e-05
2.78922847965e-05
2.79470103151e-05
2.80035711742e-05
2.80618612414e-05
2.81214001057e-05
2.81821709822e-05
2.82439747955e-05
2.83061232485e-05
2.83679687883e-05
2.84292692064e-05
2.84892192048e-05
2.85445346052e-05
2.86006680198e-05
2.86536529015e-05
2.8703032258e-05
2.87484015889e-05
2.87893119413e-05
2.88251638337e-05
2.88555844306e-05
2.88803052698e-05
2.88991046697e-05
2.89117934388e-05
2.89239269605e-05
9.9120742344e-163
9.91207423441e-163
9.91207423442e-163
9.91207423442e-163
9.91207423443e-163
9.91207423443e-163
9.91207423444e-163
9.91207423445e-163
9.91207423445e-163
9.91207423446e-163
9.91207423446e-163
9.91207423447e-163
9.91207423448e-163
9.91207423448e-163
9.91207423449e-163
9.91207423449e-163
9.9120742345e-163
9.9120742345e-163
9.91207423451e-163
9.91207423465e-163
9.91207424304e-163
9.91207476492e-163
9.91210709225e-163
9.91406234979e-163
9.99816976188e-163
1.83721625583e-63
1.21935561163e-13
1.12692328554e-08
6.93026817847e-06
1.74970514092e-05
2.32788606755e-05
2.58164412592e-05
2.67822478853e-05
2.71148254934e-05
2.72220271748e-05
2.72727017568e-05
2.73131548417e-05
2.73525598972e-05
2.73928601964e-05
2.74344842112e-05
2.74777262957e-05
2.7522690489e-05
2.75693185668e-05
2.76178885875e-05
2.76686201525e-05
2.77211955959e-05
2.77757284114e-05
2.78322254109e-05
2.78908298358e-05
2.79508971174e-05
2.80124203778e-05
2.80751777733e-05
2.81386737517e-05
2.82028419246e-05
2.8264363656e-05
2.83282705921e-05
2.83912128174e-05
2.84527507262e-05
2.85121847038e-05
2.85692599588e-05
2.86231339777e-05
2.86732211636e-05
2.87189435627e-05
2.87601271852e-05
2.8793230362e-05
2.88240119724e-05
2.88488781339e-05
2.88677284598e-05
2.88804094592e-05
2.88921666885e-05
9.91207423363e-163
9.91207423363e-163
9.91207423364e-163
9.91207423365e-163
9.91207423365e-163
9.91207423366e-163
9.91207423366e-163
9.91207423367e-163
9.91207423367e-163
9.91207423368e-163
9.91207423368e-163
9.91207423369e-163
9.91207423369e-163
9.9120742337e-163
9.9120742337e-163
9.9120742337e-163
9.91207423371e-163
9.91207423371e-163
9.91207423372e-163
9.9120742341e-163
9.91207425702e-163
9.91207566889e-163
9.91215926959e-163
9.91714917336e-163
1.0044779107e-162
6.83763905496e-63
2.75577609847e-12
2.60353197647e-08
9.35631700718e-06
1.89085440799e-05
2.38404954859e-05
2.59174688859e-05
2.67083518716e-05
2.69746263807e-05
2.70694636677e-05
2.7122924216e-05
2.71692244988e-05
2.72147451746e-05
2.72609563415e-05
2.73083582474e-05
2.73569143792e-05
2.74070387071e-05
2.74588253893e-05
2.75125650481e-05
2.75680277776e-05
2.76253143809e-05
2.76846393483e-05
2.77455106488e-05
2.78081019186e-05
2.78723538617e-05
2.79379597733e-05
2.8001221111e-05
2.80683888759e-05
2.81355517845e-05
2.82028060263e-05
2.82692931289e-05
2.83344917617e-05
2.83980452574e-05
2.84594198089e-05
2.85179726298e-05
2.85700626587e-05
2.86214466813e-05
2.86683684747e-05
2.87101733444e-05
2.87468008656e-05
2.87779950353e-05
2.880333076e-05
2.88225284552e-05
2.88353798055e-05
2.88470063739e-05
9.91207423306e-163
9.91207423307e-163
9.91207423307e-163
9.91207423308e-163
9.91207423308e-163
9.91207423309e-163
9.91207423309e-163
9.9120742331e-163
9.9120742331e-163
9.91207423311e-163
9.91207423311e-163
9.91207423311e-163
9.91207423312e-163
9.91207423312e-163
9.91207423313e-163
9.91207423313e-163
9.91207423313e-163
9.91207423314e-163
9.91207423316e-163
9.91207423396e-163
9.91207428323e-163
9.91207730818e-163
9.91225583027e-163
9.92310379211e-163
1.0137300035e-162
3.33409674161e-40
3.16155506688e-10
1.66236408983e-07
1.13877357738e-05
1.99617299114e-05
2.41669820059e-05
2.59276946081e-05
2.65797034599e-05
2.67977752192e-05
2.68858595247e-05
2.69430924991e-05
2.69956597989e-05
2.70477226969e-05
2.71003529597e-05
2.71541036238e-05
2.72088734691e-05
2.72650084316e-05
2.73226564973e-05
2.73817635214e-05
2.74424773038e-05
2.75049896585e-05
2.75692035215e-05
2.76350576184e-05
2.76994297535e-05
2.77680670328e-05
2.78379465723e-05
2.79083441858e-05
2.79790693229e-05
2.80499756361e-05
2.81203372467e-05
2.81898035802e-05
2.82547600522e-05
2.83208226812e-05
2.83843085284e-05
2.84449281731e-05
2.85018083584e-05
2.85545032569e-05
2.86025849447e-05
2.86457446071e-05
2.86834037852e-05
2.87152206479e-05
2.87378825669e-05
2.87576060503e-05
2.87707803076e-05
2.87825010892e-05
9.91207423264e-163
9.91207423264e-163
9.91207423265e-163
9.91207423265e-163
9.91207423265e-163
9.91207423266e-163
9.91207423266e-163
9.91207423267e-163
9.91207423267e-163
9.91207423267e-163
9.91207423268e-163
9.91207423268e-163
9.91207423268e-163
9.91207423269e-163
9.91207423269e-163
9.9120742327e-163
9.9120742327e-163
9.9120742327e-163
9.91207423273e-163
9.91207423451e-163
9.91207434287e-163
9.91208096578e-163
9.91246730015e-163
9.93554677716e-163
1.03017914054e-162
9.98554443433e-30
2.2128552425e-09
1.49502852149e-06
1.30903348313e-05
2.07460347065e-05
2.43861978757e-05
2.58610333782e-05
2.64037095196e-05
2.65896954603e-05
2.66751872928e-05
2.67373160426e-05
2.67964832158e-05
2.68553562843e-05
2.69148567616e-05
2.6975294983e-05
2.70367270398e-05
2.70991359807e-05
2.7163061255e-05
2.72281864611e-05
2.72948979833e-05
2.73598469138e-05
2.74294974682e-05
2.75005348239e-05
2.75728258479e-05
2.76463515518e-05
2.7720450191e-05
2.77951277732e-05
2.78701151259e-05
2.79417022888e-05
2.80159585853e-05
2.80887763791e-05
2.81596764062e-05
2.82285800744e-05
2.82945534032e-05
2.83572654159e-05
2.84129854136e-05
2.84674742922e-05
2.85172548232e-05
2.8561693891e-05
2.86003546972e-05
2.86330238108e-05
2.8659447382e-05
2.86795052512e-05
2.86930970718e-05
2.87050496011e-05
9.9120742323e-163
9.9120742323e-163
9.91207423231e-163
9.91207423231e-163
9.91207423232e-163
9.91207423232e-163
9.91207423232e-163
9.91207423233e-163
9.91207423233e-163
9.91207423233e-163
9.91207423234e-163
9.91207423234e-163
9.91207423234e-163
9.91207423235e-163
9.91207423235e-163
9.91207423235e-163
9.91207423236e-163
9.91207423236e-163
9.91207423242e-163
9.91207423595e-163
9.91207444947e-163
9.91208733511e-163
9.91282625883e-163
9.9558150023e-163
1.05314459638e-162
4.91764917358e-18
4.56075721398e-09
3.31166179121e-06
1.45296123062e-05
2.13318516203e-05
2.44761606533e-05
2.57294919021e-05
2.61892159399e-05
2.63555931978e-05
2.6439069729e-05
2.6507261382e-05
2.65732365257e-05
2.66395898053e-05
2.67063102573e-05
2.67739777353e-05
2.68424114953e-05
2.69117248717e-05
2.69791487994e-05
2.70507844045e-05
2.71236645577e-05
2.71977199009e-05
2.72731048335e-05
2.73494676007e-05
2.74269564981e-05
2.75055672591e-05
2.75814505864e-05
2.76608353143e-05
2.77398936892e-05
2.78186233625e-05
2.78964914685e-05
2.79729275185e-05
2.80441603353e-05
2.81162894426e-05
2.81850064421e-05
2.82500947813e-05
2.8311193326e-05
2.83675599415e-05
2.84188524093e-05
2.84646804903e-05
2.85047708728e-05
2.85353774549e-05
2.85627143666e-05
2.85833115553e-05
2.85972633158e-05
2.86092178148e-05
9.91207423203e-163
9.91207423203e-163
9.91207423204e-163
9.91207423204e-163
9.91207423204e-163
9.91207423205e-163
9.91207423205e-163
9.91207423205e-163
9.91207423206e-163
9.91207423206e-163
9.91207423206e-163
9.91207423207e-163
9.91207423207e-163
9.91207423207e-163
9.91207423208e-163
9.91207423208e-163
9.91207423208e-163
9.91207423209e-163
9.91207423219e-163
9.91207423855e-163
9.91207461661e-163
9.91209696836e-163
9.91335228444e-163
9.98365979004e-163
2.46470923616e-64
1.27901027716e-14
7.73575722782e-09
5.23558164282e-06
1.57619076626e-05
2.17745903391e-05
2.44765181269e-05
2.55467131172e-05
2.59351465764e-05
2.60891434444e-05
2.61774164709e-05
2.62537676085e-05
2.63278430541e-05
2.64019730356e-05
2.64764775205e-05
2.65485677218e-05
2.66244907059e-05
2.67010601307e-05
2.67784652628e-05
2.68570893538e-05
2.69365013072e-05
2.70167727771e-05
2.7098258373e-05
2.71774037185e-05
2.72607052389e-05
2.73443366589e-05
2.74285436652e-05
2.7512493e-05
2.75961812012e-05
2.76761163638e-05
2.77578129215e-05
2.78378660087e-05
2.79157544941e-05
2.79907311226e-05
2.80625633132e-05
2.81271850832e-05
2.81906342496e-05
2.82493237019e-05
2.83025135246e-05
2.83499025945e-05
2.83911305095e-05
2.84259723782e-05
2.8454228251e-05
2.84756327594e-05
2.84900970035e-05
2.85021142617e-05
9.91207423181e-163
9.91207423181e-163
9.91207423182e-163
9.91207423182e-163
9.91207423182e-163
9.91207423182e-163
9.91207423183e-163
9.91207423183e-163
9.91207423183e-163
9.91207423184e-163
9.91207423184e-163
9.91207423184e-163
9.91207423184e-163
9.91207423185e-163
9.91207423185e-163
9.91207423185e-163
9.91207423186e-163
9.91207423186e-163
9.91207423206e-163
9.91207424467e-163
9.91207503184e-163
9.91212278836e-163
9.91497248733e-163
1.00147916702e-162
3.20494400759e-63
3.4618385188e-13
1.33021629474e-08
7.05093418765e-06
1.67940488159e-05
2.21066333014e-05
2.4392855255e-05
2.53166934732e-05
2.56567679854e-05
2.57989104855e-05
2.58929740224e-05
2.59776944395e-05
2.60608812798e-05
2.61405646656e-05
2.62234284901e-05
2.63066132888e-05
2.63900336187e-05
2.64742337412e-05
2.6559049227e-05
2.66448176358e-05
2.67279586965e-05
2.68154334453e-05
2.69032329338e-05
2.69917671638e-05
2.70808088731e-05
2.71699705333e-05
2.7256196658e-05
2.73453330496e-05
2.74336638545e-05
2.75212543456e-05
2.76069619195e-05
2.76909449697e-05
2.77688574988e-05
2.7847411634e-05
2.79220503402e-05
2.79925715796e-05
2.80586208287e-05
2.81193703282e-05
2.8171054796e-05
2.82202455766e-05
2.82631846777e-05
2.82993992109e-05
2.8328596777e-05
2.83506923543e-05
2.83655951792e-05
2.83775980397e-05
9.91207423162e-163
9.91207423163e-163
9.91207423163e-163
9.91207423163e-163
9.91207423163e-163
9.91207423164e-163
9.91207423164e-163
9.91207423164e-163
9.91207423165e-163
9.91207423165e-163
9.91207423165e-163
9.91207423165e-163
9.91207423166e-163
9.91207423166e-163
9.91207423166e-163
9.91207423166e-163
9.91207423167e-163
9.91207423168e-163
9.91207423214e-163
9.9120742605e-163
9.91207598719e-163
9.91217691172e-163
9.91811664248e-163
1.00613816123e-162
7.96453299718e-63
4.2643559885e-12
2.78157014114e-08
8.81430736089e-06
1.77213279091e-05
2.23134109762e-05
2.42669019488e-05
2.50439632847e-05
2.53423093871e-05
2.5482649076e-05
2.55852689818e-05
2.56772163735e-05
2.5770336954e-05
2.58624904703e-05
2.59542535995e-05
2.60458046191e-05
2.61377958061e-05
2.62298588205e-05
2.63193528855e-05
2.64125217091e-05
2.65061882655e-05
2.6600443087e-05
2.66949365315e-05
2.67867180565e-05
2.68821024872e-05
2.69772273876e-05
2.70723347235e-05
2.71664957914e-05
2.72564918153e-05
2.73486054299e-05
2.74387161437e-05
2.75263871211e-05
2.76116366011e-05
2.76932748239e-05
2.77677524514e-05
2.78410232244e-05
2.79094121759e-05
2.79723114691e-05
2.8029454929e-05
2.80804008253e-05
2.81246149711e-05
2.81585613832e-05
2.81888151068e-05
2.8211658872e-05
2.82270614936e-05
2.82391710571e-05
9.91207423147e-163
9.91207423147e-163
9.91207423147e-163
9.91207423147e-163
9.91207423148e-163
9.91207423148e-163
9.91207423148e-163
9.91207423148e-163
9.91207423149e-163
9.91207423149e-163
9.91207423149e-163
9.91207423149e-163
9.9120742315e-163
9.9120742315e-163
9.9120742315e-163
9.9120742315e-163
9.91207423151e-163
9.91207423152e-163
9.9120742325e-163
9.91207429162e-163
9.91207787487e-163
9.91228695875e-163
9.92480901639e-163
1.01641904435e-162
7.20015429297e-40
4.2700503349e-10
1.4477444512e-07
1.05100953569e-05
1.84890207114e-05
2.24231429682e-05
2.40889812331e-05
2.47449135335e-05
2.50040648378e-05
2.51417350737e-05
2.52535492752e-05
2.53592701561e-05
2.54628254246e-05
2.55651626292e-05
2.56666923525e-05
2.57648669169e-05
2.5865475722e-05
2.59660922478e-05
2.60667473204e-05
2.61676045804e-05
2.62656385043e-05
2.63671464616e-05
2.64686194451e-05
2.65702328712e-05
2.66718708792e-05
2.67698199929e-05
2.68706184168e-05
2.69702910935e-05
2.70686487986e-05
2.71657564856e-05
2.72570144365e-05
2.73488485373e-05
2.74374565022e-05
2.75225065886e-05
2.76034897465e-05
2.76761910744e-05
2.774720472e-05
2.78124932992e-05
2.78717513637e-05
2.79243231077e-05
2.79699466719e-05
2.80083251138e-05
2.80393185438e-05
2.8062977762e-05
2.80753691043e-05
2.80914882906e-05
9.91207423133e-163
9.91207423133e-163
9.91207423134e-163
9.91207423134e-163
9.91207423134e-163
9.91207423134e-163
9.91207423135e-163
9.91207423135e-163
9.91207423135e-163
9.91207423135e-163
9.91207423136e-163
9.91207423136e-163
9.91207423136e-163
9.91207423136e-163
9.91207423136e-163
9.91207423137e-163
9.91207423137e-163
9.91207423141e-163
9.91207423362e-163
9.91207436745e-163
9.91208244157e-163
9.91254810513e-163
9.93985966264e-163
1.0359379366e-162
1.8985750968e-29
2.49054535237e-09
1.39841482085e-06
1.20796334854e-05
1.9118689543e-05
2.24611063571e-05
2.38639978419e-05
2.44157785879e-05
2.46463879537e-05
2.47857991342e-05
2.49067889599e-05
2.50228655037e-05
2.51373215635e-05
2.52469550139e-05
2.5358767564e-05
2.54694832517e-05
2.55795768003e-05
2.5689347498e-05
2.57957878836e-05
2.59050458298e-05
2.60139782872e-05
2.61228655965e-05
2.62283961773e-05
2.63368255198e-05
2.64450001419e-05
2.65522322215e-05
2.66588256125e-05
2.67606272987e-05
2.68643669094e-05
2.69659340282e-05
2.7065280431e-05
2.71579029957e-05
2.72508254369e-05
2.73394358405e-05
2.74234035458e-05
2.750239378e-05
2.75724481296e-05
2.76402116815e-05
2.77012974214e-05
2.77555480888e-05
2.78026508126e-05
2.78422785243e-05
2.78743162835e-05
2.78986215696e-05
2.7915131179e-05
2.79276364863e-05
9.91207423121e-163
9.91207423122e-163
9.91207423122e-163
9.91207423122e-163
9.91207423122e-163
9.91207423123e-163
9.91207423123e-163
9.91207423123e-163
9.91207423123e-163
9.91207423123e-163
9.91207423124e-163
9.91207423124e-163
9.91207423124e-163
9.91207423124e-163
9.91207423125e-163
9.91207423125e-163
9.91207423125e-163
9.91207423133e-163
9.91207423628e-163
9.91207453025e-163
9.91209191576e-163
9.91307000369e-163
9.96825761245e-163
1.067431746e-162
2.37153657978e-16
5.30303200046e-09
3.3206677444e-06
1.35229511339e-05
1.96028534442e-05
2.24156124686e-05
2.35877600761e-05
2.40530655645e-05
2.42669273426e-05
2.44123113985e-05
2.45435821338e-05
2.46705621241e-05
2.47928980471e-05
2.49162727567e-05
2.50380980247e-05
2.51590120417e-05
2.52757137108e-05
2.53945230377e-05
2.55130949526e-05
2.56307898904e-05
2.57450861807e-05
2.58619106382e-05
2.5978331904e-05
2.60936143517e-05
2.62050756449e-05
2.63189147471e-05
2.64311874622e-05
2.65421140385e-05
2.66474758072e-05
2.67542025692e-05
2.68577487297e-05
2.69580884362e-05
2.70513582871e-05
2.71436366073e-05
2.72309619325e-05
2.73130882377e-05
2.7389565876e-05
2.74557024463e-05
2.75188612753e-05
2.75750194707e-05
2.76237033786e-05
2.76646261789e-05
2.76976782372e-05
2.77227386402e-05
2.77397479411e-05
2.77522999275e-05
9.91207423111e-163
9.91207423111e-163
9.91207423112e-163
9.91207423112e-163
9.91207423112e-163
9.91207423112e-163
9.91207423112e-163
9.91207423113e-163
9.91207423113e-163
9.91207423113e-163
9.91207423113e-163
9.91207423113e-163
9.91207423114e-163
9.91207423114e-163
9.91207423114e-163
9.91207423114e-163
9.91207423115e-163
9.91207423132e-163
9.91207424162e-163
9.91207486265e-163
9.91211232607e-163
9.91432560253e-163
1.00075690657e-162
1.99535630176e-63
1.13259634685e-13
9.95742481278e-09
5.37363805868e-06
1.4767988712e-05
1.9956515469e-05
2.22957630647e-05
2.32641191168e-05
2.3664616698e-05
2.38683423638e-05
2.4021895678e-05
2.41617525252e-05
2.43006460637e-05
2.4436895398e-05
2.45713015396e-05
2.47006188318e-05
2.48316152336e-05
2.49612512798e-05
2.50865312234e-05
2.52139449489e-05
2.53405268689e-05
2.54661673429e-05
2.55879048022e-05
2.57119100548e-05
2.5834838884e-05
2.59531765793e-05
2.60734761851e-05
2.61919476296e-05
2.63084510931e-05
2.64190163765e-05
2.65307741107e-05
2.66388675777e-05
2.67435836297e-05
2.68402681659e-05
2.69361120892e-05
2.70269762199e-05
2.71119316629e-05
2.71907435358e-05
2.72630131711e-05
2.73247088225e-05
2.73826667116e-05
2.74329362291e-05
2.74752736652e-05
2.75093933989e-05
2.75352418023e-05
2.75528278627e-05
2.75655059887e-05
9.91207423102e-163
9.91207423102e-163
9.91207423102e-163
9.91207423103e-163
9.91207423103e-163
9.91207423103e-163
9.91207423103e-163
9.91207423104e-163
9.91207423104e-163
9.91207423104e-163
9.91207423104e-163
9.91207423104e-163
9.91207423104e-163
9.91207423105e-163
9.91207423105e-163
9.91207423105e-163
9.91207423106e-163
9.91207423155e-163
9.91207426099e-163
9.91207602804e-163
9.91217821253e-163
9.91810999977e-163
1.00648837029e-162
7.53770282434e-63
2.99032309762e-12
2.14970679808e-08
7.48602941917e-06
1.58195587339e-05
2.01859059056e-05
2.21041456552e-05
2.29039340643e-05
2.32512729788e-05
2.34514442162e-05
2.36123089314e-05
2.37676298362e-05
2.39188047305e-05
2.40639574992e-05
2.42099442417e-05
2.43534975966e-05
2.4492198452e-05
2.46318709164e-05
2.47701742965e-05
2.49033971386e-05
2.50389125626e-05
2.51728278934e-05
2.53057705252e-05
2.54340708246e-05
2.55640558161e-05
2.56928758533e-05
2.58160736552e-05
2.59411493429e-05
2.60635033653e-05
2.61832712798e-05
2.62962855343e-05
2.64092405549e-05
2.65178807664e-05
2.66223199202e-05
2.67179070954e-05
2.68118527995e-05
2.68998514574e-05
2.69814255241e-05
2.70560150859e-05
2.71194898675e-05
2.71791867354e-05
2.72309210156e-05
2.72744805977e-05
2.73096662789e-05
2.73363578887e-05
2.73545286868e-05
2.73673529037e-05
9.91207423094e-163
9.91207423094e-163
9.91207423094e-163
9.91207423095e-163
9.91207423095e-163
9.91207423095e-163
9.91207423095e-163
9.91207423095e-163
9.91207423096e-163
9.91207423096e-163
9.91207423096e-163
9.91207423096e-163
9.91207423096e-163
9.91207423096e-163
9.91207423097e-163
9.91207423097e-163
9.91207423099e-163
9.91207423228e-163
9.91207430901e-163
9.91207889115e-163
9.91234258976e-163
9.92778392975e-163
1.02086784093e-162
1.32720136342e-39
6.36463843282e-10
1.22265564142e-07
9.51346613657e-06
1.6721505764e-05
2.02982930026e-05
2.18515474966e-05
2.2509827979e-05
2.2815789945e-05
2.30165444847e-05
2.3192780136e-05
2.33611998113e-05
2.35223378025e-05
2.36827542773e-05
2.38370415227e-05
2.39917563117e-05
2.4144245391e-05
2.42910841875e-05
2.44391588013e-05
2.45855377687e-05
2.47266442553e-05
2.48694609114e-05
2.50102452193e-05
2.51460581866e-05
2.52835524187e-05
2.5419080929e-05
2.55487380646e-05
2.56798751113e-05
2.58079300194e-05
2.59331508024e-05
2.60509569952e-05
2.61688695341e-05
2.62821399609e-05
2.63904035009e-05
2.64894462334e-05
2.65867939399e-05
2.66775179102e-05
2.67615542198e-05
2.68344238876e-05
2.69040430212e-05
2.69653565763e-05
2.70185143394e-05
2.70633170894e-05
2.70994993846e-05
2.71270357137e-05
2.71458448546e-05
2.71588446857e-05
9.91207423087e-163
9.91207423087e-163
9.91207423087e-163
9.91207423087e-163
9.91207423087e-163
9.91207423088e-163
9.91207423088e-163
9.91207423088e-163
9.91207423088e-163
9.91207423088e-163
9.91207423089e-163
9.91207423089e-163
9.91207423089e-163
9.91207423089e-163
9.91207423089e-163
9.9120742309e-163
9.91207423096e-163
9.91207423466e-163
9.91207445433e-163
9.91208743769e-163
9.91281949226e-163
9.95426968943e-163
1.05294601414e-162
2.74707557413e-20
3.54535466604e-09
1.68195397547e-06
1.13449593026e-05
1.74064477869e-05
2.03056225987e-05
2.15534130237e-05
2.20923073658e-05
2.23690346762e-05
2.25741606261e-05
2.27625132631e-05
2.29414455146e-05
2.31187726458e-05
2.32886702983e-05
2.34580327214e-05
2.36207064581e-05
2.37839068366e-05
2.39442576857e-05
2.40988280968e-05
2.4254677285e-05
2.44078720902e-05
2.45559210676e-05
2.47054269218e-05
2.48489688213e-05
2.49939175567e-05
2.51361646555e-05
2.52722396201e-05
2.54093812283e-05
2.55430711766e-05
2.56733379282e-05
2.57962916326e-05
2.59185034214e-05
2.60358750474e-05
2.6144237476e-05
2.62507591889e-05
2.63512544051e-05
2.64450483402e-05
2.65317494085e-05
2.66068883697e-05
2.66783171403e-05
2.67413802426e-05
2.6796012397e-05
2.68419621863e-05
2.68792246566e-05
2.69076188463e-05
2.692706851e-05
2.694026463e-05
9.9120742308e-163
9.9120742308e-163
9.91207423081e-163
9.91207423081e-163
9.91207423081e-163
9.91207423081e-163
9.91207423081e-163
9.91207423082e-163
9.91207423082e-163
9.91207423082e-163
9.91207423082e-163
9.91207423082e-163
9.91207423082e-163
9.91207423083e-163
9.91207423083e-163
9.91207423083e-163
9.91207423101e-163
9.91207424103e-163
9.91207481825e-163
9.91210818513e-163
9.91401893757e-163
1.0005039252e-162
1.34742898228e-63
4.87485848015e-14
8.21625322817e-09
4.10286325795e-06
1.28897403866e-05
1.78983407356e-05
2.02015640599e-05
2.11980523734e-05
2.16490332492e-05
2.19099542708e-05
2.2123202785e-05
2.2321281393e-05
2.25162307556e-05
2.27032235927e-05
2.28887656256e-05
2.30669472413e-05
2.32448439291e-05
2.34155587124e-05
2.35862223474e-05
2.37507901164e-05
2.39157262874e-05
2.40781405781e-05
2.42344655879e-05
2.43918256238e-05
2.45428375406e-05
2.4695234998e-05
2.48446606265e-05
2.49874676199e-05
2.5130567566e-05
2.52700988746e-05
2.54016615944e-05
2.55329016997e-05
2.56593583142e-05
2.57808065965e-05
2.58928356367e-05
2.60026479436e-05
2.61059271956e-05
2.62023632528e-05
2.62874730101e-05
2.63690076995e-05
2.64423559684e-05
2.65073995176e-05
2.65634982429e-05
2.66107507591e-05
2.66490804835e-05
2.66739360211e-05
2.66941167199e-05
2.67074213573e-05
9.91207423074e-163
9.91207423075e-163
9.91207423075e-163
9.91207423075e-163
9.91207423075e-163
9.91207423075e-163
9.91207423075e-163
9.91207423076e-163
9.91207423076e-163
9.91207423076e-163
9.91207423076e-163
9.91207423076e-163
9.91207423076e-163
9.91207423077e-163
9.91207423077e-163
9.91207423078e-163
9.9120742314e-163
9.91207426795e-163
9.91207642386e-163
9.91219884525e-163
9.91915035758e-163
1.00835191588e-162
8.34362451478e-63
3.75074486077e-12
2.02809791806e-08
6.60723450699e-06
1.42029470039e-05
1.82068429195e-05
2.0007042048e-05
2.08005786392e-05
2.11836172995e-05
2.14380701667e-05
2.16626893922e-05
2.18742918814e-05
2.20822939657e-05
2.2281711894e-05
2.2479544257e-05
2.26694093723e-05
2.28584391628e-05
2.30397593913e-05
2.32213014902e-05
2.33955278809e-05
2.35704728578e-05
2.37414783371e-05
2.39062978223e-05
2.40715423811e-05
2.42301024154e-05
2.43893330953e-05
2.45454945525e-05
2.46941596148e-05
2.48433601485e-05
2.49883872671e-05
2.5125194045e-05
2.52613947286e-05
2.53923253048e-05
2.55135329219e-05
2.56331291125e-05
2.57462059309e-05
2.58524692018e-05
2.59470674411e-05
2.60385109054e-05
2.61221835533e-05
2.61972502202e-05
2.62637379582e-05
2.63213629563e-05
2.63654196135e-05
2.64046970782e-05
2.64345658247e-05
2.64552308776e-05
2.64687112067e-05
9.91207423069e-163
9.91207423069e-163
9.91207423069e-163
9.9120742307e-163
9.9120742307e-163
9.9120742307e-163
9.9120742307e-163
9.9120742307e-163
9.9120742307e-163
9.91207423071e-163
9.91207423071e-163
9.91207423071e-163
9.91207423071e-163
9.91207423071e-163
9.91207423071e-163
9.91207423075e-163
9.91207423288e-163
9.91207435827e-163
9.91208171742e-163
9.91249379957e-163
9.93567706332e-163
1.03168800141e-162
7.21769396031e-31
1.4079074775e-09
2.00347900244e-07
8.91463338569e-06
1.52201375029e-05
1.83273623624e-05
1.97266637341e-05
2.03607652033e-05
2.07038792007e-05
2.09630432673e-05
2.11981076705e-05
2.14265993214e-05
2.16447848406e-05
2.18600698598e-05
2.20665715583e-05
2.22677815649e-05
2.2467519823e-05
2.26597144053e-05
2.28509779557e-05
2.30383777155e-05
2.32187013993e-05
2.33987320797e-05
2.35721280253e-05
2.37456393531e-05
2.39116528319e-05
2.4077598698e-05
2.42399922327e-05
2.43948368965e-05
2.4549599826e-05
2.46956115971e-05
2.48414436109e-05
2.49819161415e-05
2.51126864907e-05
2.52421116815e-05