/*--------------------------------*- C++ -*----------------------------------*\
| =========                 |                                                 |
| \\      /  F ield         | foam-extend: Open Source CFD                    |
|  \\    /   O peration     | Version:     4.1                                |
|   \\  /    A nd           | Web:         http://www.foam-extend.org         |
|    \\/     M anipulation  |                                                 |
\*---------------------------------------------------------------------------*/
FoamFile
{
    version     2.0;
    format      ascii;
    class       volScalarField;
    location    "0.0004";
    object      Mach;
}
// * * * * * * * * * * * * * * * * * * * * * * * * * * * * * * * * * * * * * //

dimensions      [0 0 0 0 0 0 0];

internalField   nonuniform List<scalar> 
8400
(
56.1971337797
56.1971337797
56.1971337797
56.1971337798
56.1971337798
56.1971337798
56.1971337799
56.1971337799
56.1971337799
56.19713378
56.19713378
56.19713378
56.1971337801
56.1971337801
56.1971337801
56.1971337802
56.1971337802
56.1971337802
56.1971337802
56.1971337803
56.1971337803
56.1971337803
56.1971337791
56.1971337031
56.1971291702
56.1968646655
56.1846529604
40.7746276796
14.6859246973
6.77557646892
3.11611413068
1.64212164894
0.85807397894
0.464444349238
0.294632820509
0.236461948058
0.218949762956
0.21211727717
0.207521748101
0.203272632483
0.198953548449
0.194483070794
0.189930255832
0.18530616083
0.180634853566
0.175941895858
0.171253727344
0.166610609729
0.162014129847
0.157481942932
0.153097541102
0.148875760848
0.144826826032
0.140965173616
0.137317968172
0.133929665166
0.130804094014
0.127940149838
0.125374491112
0.123098829592
0.121113311281
0.119414262693
0.11799406962
0.116845953335
0.115935767214
0.115230880633
0.114726342811
0.114389240213
0.114184950302
0.114172180927
56.1971337857
56.1971337857
56.1971337857
56.1971337857
56.1971337857
56.1971337857
56.1971337858
56.1971337858
56.1971337858
56.1971337858
56.1971337858
56.1971337858
56.1971337858
56.1971337858
56.1971337858
56.1971337858
56.1971337859
56.1971337859
56.1971337859
56.1971337859
56.1971337859
56.1971337858
56.1971337785
56.1971333389
56.1971073428
56.1956119385
56.1324838086
22.1123354553
10.1479646997
4.51652589865
2.36007222964
1.22747235814
0.634701048869
0.354157761883
0.246325528131
0.213416801831
0.20294724124
0.197686847331
0.193648900877
0.189956482771
0.186458538222
0.183127960662
0.179962240698
0.17696509569
0.174137315157
0.171479940062
0.16899707123
0.166693806058
0.164575239154
0.162653494183
0.160945027218
0.159430754621
0.158088726649
0.156943893047
0.155985960342
0.155216556862
0.154623438518
0.154188927415
0.153894495349
0.153723438915
0.153659831176
0.153688160105
0.153793219657
0.153945043225
0.154105041154
0.154276602327
0.154434893565
0.154560673101
0.154638039365
0.154691068607
56.1971337887
56.1971337887
56.1971337887
56.1971337887
56.1971337888
56.1971337888
56.1971337888
56.1971337888
56.1971337888
56.1971337888
56.1971337888
56.1971337888
56.1971337888
56.1971337888
56.1971337888
56.1971337888
56.1971337888
56.1971337888
56.1971337888
56.1971337888
56.1971337888
56.1971337882
56.1971337497
56.1971314039
56.1969919344
56.1901052446
47.8234211847
16.7193318663
7.68662470362
3.41797230356
1.78986066644
0.926728565935
0.494182106066
0.311427295751
0.252244310747
0.235409951465
0.228999757969
0.224956448204
0.221579086504
0.218560943238
0.215839737584
0.213393691297
0.211206372892
0.209262976223
0.207550833743
0.206060155656
0.204778281311
0.203693345741
0.202798379632
0.202086857519
0.201547557584
0.201165141301
0.200927293457
0.200818400985
0.200809944611
0.200917367163
0.201118634768
0.201393769727
0.201722331994
0.202090023242
0.202483685197
0.202888177815
0.203285332845
0.203662620866
0.204007438757
0.204312744843
0.204544046108
0.204708213773
0.20479612782
0.204821750219
56.1971337905
56.1971337905
56.1971337905
56.1971337905
56.1971337905
56.1971337905
56.1971337905
56.1971337905
56.1971337905
56.1971337905
56.1971337905
56.1971337905
56.1971337905
56.1971337905
56.1971337905
56.1971337905
56.1971337905
56.1971337905
56.1971337905
56.1971337905
56.1971337905
56.1971337877
56.1971336145
56.1971231071
56.1965038761
56.1689412386
30.6906105536
11.660202729
5.3094072893
2.73442727854
1.43293624924
0.756361555978
0.442712352402
0.329063240479
0.29657048981
0.286399479049
0.281159502926
0.277143032188
0.273598168861
0.270390159864
0.267488419768
0.264875117368
0.262532448665
0.260443237228
0.258592244058
0.256967794485
0.255555533565
0.254341207858
0.253312452716
0.252460976305
0.251777202126
0.251245282489
0.250820682403
0.250513338606
0.250314321737
0.250211005467
0.250189466273
0.250233334769
0.250326967739
0.250457466655
0.250617349361
0.250804062821
0.250975438235
0.251140212179
0.251285812473
0.2514034075
0.251485959957
0.251527360633
0.251522241793
0.251485843963
56.1971337915
56.1971337915
56.1971337915
56.1971337915
56.1971337915
56.1971337915
56.1971337915
56.1971337915
56.1971337915
56.1971337915
56.1971337915
56.1971337915
56.1971337915
56.1971337915
56.1971337915
56.1971337915
56.1971337915
56.1971337915
56.1971337915
56.1971337915
56.1971337914
56.1971337828
56.1971332613
56.197102369
56.19532362
56.1211071629
20.8295886681
9.82035482033
4.35887379859
2.28952752125
1.2133812715
0.674423049335
0.449463654652
0.378124632182
0.357848570232
0.349820727523
0.344445130118
0.339807308889
0.33558687469
0.331674518284
0.328054491737
0.324712892434
0.321635756503
0.318811201071
0.316226005319
0.313869857699
0.31173910786
0.309823217961
0.308074753692
0.306510949796
0.305117276306
0.303881358477
0.302787807151
0.30182335969
0.300979834264
0.300247815622
0.299620448717
0.299089453045
0.298648602111
0.298252825111
0.297918169558
0.297633667215
0.297392886003
0.297185881229
0.297005752981
0.296843856455
0.296695186111
0.296554519883
0.296419435454
0.296308344267
56.1971337922
56.1971337922
56.1971337922
56.1971337922
56.1971337922
56.1971337922
56.1971337922
56.1971337922
56.1971337922
56.1971337922
56.1971337922
56.1971337922
56.1971337922
56.1971337922
56.1971337922
56.1971337922
56.1971337922
56.1971337922
56.1971337922
56.1971337922
56.1971337919
56.1971337727
56.1971325714
56.197058933
56.1929819601
52.8280995931
18.0287646094
8.44278258766
3.74394545183
1.98952517242
1.07994468948
0.649500015181
0.488328312633
0.440746027384
0.425746687574
0.418071772079
0.412034269826
0.406552365525
0.401418775396
0.396587838906
0.392041912061
0.387768648819
0.383756242528
0.379992510115
0.37646791784
0.373176257214
0.370106848351
0.367247389637
0.364587962115
0.362123085386
0.359842907989
0.357739666073
0.355801788623
0.354018169255
0.352395383986
0.350892423021
0.349528931374
0.348293146509
0.347173705993
0.346159940436
0.345249995933
0.344437682592
0.343718174775
0.343084598205
0.342548396246
0.342064963677
0.341653924699
0.341311321404
0.341034479138
0.340845453193
56.1971337927
56.1971337927
56.1971337927
56.1971337927
56.1971337927
56.1971337927
56.1971337927
56.1971337927
56.1971337927
56.1971337927
56.1971337927
56.1971337927
56.1971337927
56.1971337927
56.1971337927
56.1971337927
56.1971337927
56.1971337927
56.1971337927
56.1971337927
56.1971337919
56.1971337396
56.1971305689
56.196942877
56.1879972124
44.7810324378
15.9038659347
7.29753372742
3.30019750848
1.77735211335
1.00260654971
0.660510312599
0.543296509711
0.508994815978
0.49623645982
0.488201096337
0.481293937363
0.474845890344
0.468724819042
0.462898872091
0.457356041473
0.45208262363
0.447069007279
0.442305932781
0.437788376235
0.433506992257
0.429453234887
0.425621833944
0.42200215971
0.418586230511
0.415374072709
0.412380184854
0.409548016941
0.406903259372
0.4044303131
0.402132427968
0.40000458407
0.398039093944
0.396231843414
0.394579285792
0.393095393499
0.39173357006
0.390518702455
0.389445061057
0.38850631335
0.387698462105
0.387022582045
0.386475295293
0.386054448913
0.385786271926
56.1971337931
56.1971337931
56.1971337931
56.1971337931
56.1971337931
56.1971337931
56.1971337931
56.1971337931
56.1971337931
56.1971337931
56.1971337931
56.1971337931
56.1971337931
56.1971337931
56.1971337931
56.1971337931
56.1971337931
56.1971337931
56.1971337931
56.1971337931
56.1971337912
56.1971336795
56.1971269125
56.1967232841
56.1779688066
34.4210395518
12.4017748326
5.97041008803
2.96042746862
1.62333450879
0.964716164732
0.693450992184
0.60639653973
0.579722602677
0.567809232338
0.559117613081
0.551252208505
0.543788464856
0.536643311016
0.529791459242
0.523225153367
0.516931375177
0.510902513857
0.505134297107
0.499616328399
0.49434382349
0.489309025165
0.484506522451
0.479950542465
0.475587612486
0.471445969794
0.467524370366
0.463817564545
0.460319427768
0.457027476651
0.453939936343
0.451079267532
0.448392970468
0.445907361591
0.443616820473
0.441524897306
0.439629518451
0.437929226696
0.436419387194
0.435102650479
0.433978911196
0.433069704905
0.43232080002
0.431758109123
0.431411039809
56.1971337934
56.1971337934
56.1971337934
56.1971337934
56.1971337934
56.1971337934
56.1971337934
56.1971337934
56.1971337934
56.1971337934
56.1971337934
56.1971337934
56.1971337934
56.1971337934
56.1971337934
56.1971337934
56.1971337934
56.1971337934
56.1971337934
56.1971337933
56.1971337893
56.1971335447
56.1971188557
56.1962553515
56.1584461476
27.0153965961
11.0913462921
5.06121899063
2.68766664677
1.51194901113
0.954521914375
0.740413514223
0.673871022656
0.651658591117
0.63985382829
0.630345898412
0.621487193084
0.612996566911
0.604818076887
0.596934838227
0.589340025954
0.582026105551
0.574984478715
0.568211924233
0.56170102507
0.55547603383
0.549465762752
0.543703972082
0.538183528523
0.532901767045
0.527862783346
0.523062263893
0.518499388246
0.51419989017
0.510100828789
0.506243057061
0.502624101268
0.499241605486
0.496100715908
0.493199815833
0.490568404391
0.488152164116
0.485981387404
0.484056805054
0.482378714802
0.480947712904
0.47976051017
0.478817842372
0.478116827725
0.477694716447
56.1971337936
56.1971337936
56.1971337936
56.1971337936
56.1971337936
56.1971337936
56.1971337936
56.1971337936
56.1971337936
56.1971337936
56.1971337936
56.1971337936
56.1971337936
56.1971337936
56.1971337936
56.1971337936
56.1971337936
56.1971337936
56.1971337936
56.1971337935
56.1971337856
56.1971333087
56.1971051121
56.1954826348
56.1280854429
21.5955491805
10.0569871237
4.53733531987
2.46476466854
1.43251044808
0.965709049667
0.796643236896
0.744049805112
0.724369575104
0.712241606536
0.701792257138
0.691897080061
0.682352191295
0.673125594575
0.664201797565
0.65557608601
0.647243641856
0.639226148339
0.631450913893
0.62395396158
0.616729268364
0.609770445925
0.603076233918
0.5966389199
0.590459819783
0.584574448994
0.57891409583
0.573520774584
0.568387680685
0.5635185628
0.558918124437
0.554621345029
0.550563423655
0.546790441567
0.543302684698
0.540099218522
0.537187917887
0.534568379502
0.532243233291
0.530214856406
0.528517843763
0.527088513051
0.525958731784
0.525124190223
0.524630937974
56.1971337937
56.1971337937
56.1971337937
56.1971337937
56.1971337937
56.1971337937
56.1971337937
56.1971337938
56.1971337938
56.1971337938
56.1971337938
56.1971337938
56.1971337938
56.1971337938
56.1971337938
56.1971337938
56.1971337938
56.1971337938
56.1971337938
56.1971337935
56.1971337795
56.1971329492
56.1970848831
56.1943945033
55.8924099048
18.9835262067
9.11160135426
4.10638410139
2.27821195603
1.38003128819
0.992982872528
0.859039182379
0.816134174138
0.797718444313
0.784919364873
0.773426793047
0.762445329842
0.751822413473
0.741532088043
0.73159468546
0.721925163506
0.712566703333
0.703508524694
0.694743822514
0.686275087032
0.678095213247
0.670198713742
0.662619420449
0.655277623553
0.648222575939
0.641446704636
0.634959766892
0.628759877006
0.622881958307
0.617264030112
0.611948101796
0.606938585764
0.602242311124
0.597861395959
0.593839801836
0.590113239722
0.586721648124
0.583673033096
0.580967887965
0.578608169113
0.576596478171
0.574934134095
0.57362235195
0.572658496732
0.572097393537
56.1971337939
56.1971337939
56.1971337939
56.1971337939
56.1971337939
56.1971337939
56.1971337939
56.1971337939
56.1971337939
56.1971337939
56.1971337939
56.1971337939
56.1971337939
56.1971337939
56.1971337939
56.1971337939
56.1971337939
56.1971337939
56.1971337939
56.1971337934
56.1971337648
56.1971319978
56.1970259567
56.1915891405
50.4529677932
17.4364750223
8.18487937425
3.73391215785
2.12490618342
1.34972721355
1.03225771746
0.925538403101
0.889346687453
0.871530609377
0.857861016266
0.845256300309
0.833138966617
0.821444594821
0.810056706634
0.799011835008
0.788304260089
0.777920111397
0.767857236908
0.758106819326
0.748708659455
0.739571335276
0.730745887915
0.722224763338
0.71400423503
0.706091526559
0.698521228701
0.69122008344
0.684236810747
0.677567210215
0.671229553799
0.66522330722
0.659599869042
0.654279544997
0.649318577432
0.644720180727
0.640492749012
0.636645930938
0.633222957315
0.630148591725
0.627467295187
0.625184040351
0.623299607552
0.621814231323
0.620726099107
0.620099972656
56.197133794
56.197133794
56.197133794
56.197133794
56.197133794
56.197133794
56.197133794
56.197133794
56.197133794
56.197133794
56.197133794
56.197133794
56.197133794
56.197133794
56.197133794
56.197133794
56.197133794
56.197133794
56.197133794
56.197133793
56.1971337299
56.1971299523
56.196909363
56.1867123568
43.2247895126
15.5643449622
7.25102175848
3.40973119861
1.99680850164
1.3378605609
1.08094791785
0.99513799439
0.963557795543
0.945720350069
0.931034946381
0.917294525797
0.904000241822
0.891119640915
0.878625314293
0.866503709066
0.854735649219
0.843320156208
0.832290628344
0.821549522341
0.811146434064
0.801072823486
0.791331464904
0.781957087486
0.77286345204
0.764105289003
0.755674695385
0.747588282193
0.739883787855
0.732483791368
0.725446543187
0.718775320674
0.712474312179
0.706604298607
0.70107845454
0.695962972844
0.691258355193
0.68697360367
0.683114593643
0.679689970898
0.67670343465
0.674201309986
0.672100467588
0.670447838923
0.669239724069
0.668550380732
56.1971337941
56.1971337941
56.1971337941
56.1971337941
56.1971337941
56.1971337941
56.1971337941
56.1971337941
56.1971337941
56.1971337941
56.1971337941
56.1971337941
56.1971337941
56.1971337941
56.1971337941
56.1971337941
56.1971337941
56.1971337941
56.1971337941
56.1971337919
56.1971336615
56.1971258645
56.1966663165
56.1759850059
33.5926413913
12.2858900622
6.09569403656
3.12237562242
1.89474014187
1.34284795407
1.1364257143
1.06671050324
1.03836729614
1.02022796195
1.00443512762
0.989437087222
0.974947953994
0.960897180069
0.9472676018
0.934083210644
0.921246944959
0.908788889779
0.896703047355
0.884983048136
0.873666217965
0.862654527439
0.852004739255
0.841704037915
0.831757768596
0.822216342347
0.812982439874
0.804123509026
0.79563526017
0.787521992421
0.779848439099
0.772530890628
0.765625878649
0.759137010915
0.753078022804
0.747506223543
0.742339882122
0.73763500778
0.733397803245
0.729638322454
0.726360740311
0.723570839536
0.721270357986
0.719455348252
0.71817414197
0.717373830535
56.1971337942
56.1971337942
56.1971337942
56.1971337942
56.1971337942
56.1971337942
56.1971337942
56.1971337942
56.1971337942
56.1971337942
56.1971337942
56.1971337942
56.1971337942
56.1971337942
56.1971337942
56.1971337942
56.1971337942
56.1971337942
56.1971337941
56.1971337893
56.197133496
56.1971161069
56.1961078497
56.1535147407
25.8431923222
10.9616681201
5.11111719986
2.87055032741
1.81651554602
1.36166681211
1.1970967638
1.13977884385
1.11353994225
1.09481614871
1.07788805968
1.0616738795
1.04597217802
1.03079193348
1.01600721881
1.00166385978
0.98774481477
0.974237019499
0.961182333808
0.948471212387
0.936152682836
0.924219124417
0.912716605454
0.901544487736
0.890754135752
0.880354695427
0.870341928616
0.860779021767
0.851566078979
0.842767682136
0.834386368967
0.826492979389
0.818990124224
0.811949779304
0.805378180587
0.799282055644
0.793724143921
0.788614393387
0.784019250301
0.779941629532
0.776386975018
0.773358263086
0.770858900732
0.768887650027
0.767441499713
0.7666319349
56.1971337943
56.1971337943
56.1971337943
56.1971337943
56.1971337943
56.1971337943
56.1971337943
56.1971337943
56.1971337943
56.1971337943
56.1971337943
56.1971337943
56.1971337943
56.1971337943
56.1971337943
56.1971337943
56.1971337943
56.1971337943
56.1971337941
56.1971337834
56.1971331501
56.1970964743
56.1950349761
56.1137080588
20.2536176958
9.81084613387
4.55172149505
2.65140245008
1.76109400016
1.39342491417
1.26242381733
1.21414987453
1.18906079835
1.16950445332
1.15137701755
1.1339269632
1.1170606198
1.10063815438
1.08470992989
1.06924951774
1.054301157
1.03974505007
1.02562047426
1.01192844721
0.998706089549
0.985846690007
0.973398432285
0.961372583239
0.949811699496
0.938608590803
0.92783556512
0.917482021658
0.907626003937
0.898151358552
0.889138720576
0.88059127304
0.872574981706
0.864999373847
0.857927351762
0.851368060773
0.845332377349
0.83989558601
0.834954932453
0.830567727921
0.826743649186
0.823485949086
0.820795357822
0.818672561811
0.817115978057
0.816251947008
56.1971337943
56.1971337943
56.1971337943
56.1971337943
56.1971337943
56.1971337943
56.1971337943
56.1971337943
56.1971337943
56.1971337943
56.1971337943
56.1971337943
56.1971337943
56.1971337943
56.1971337943
56.1971337943
56.1971337943
56.1971337943
56.197133794
56.1971337717
56.1971324197
56.1970515363
56.1926833266
52.5644624023
18.0856358348
8.68291754381
4.0794869945
2.46766860026
1.72891076339
1.43539740365
1.33121736952
1.28955025723
1.26488189452
1.24428974371
1.22494971993
1.20621872859
1.18806258883
1.17044801686
1.15342413753
1.13684300677
1.12075999549
1.10521376818
1.09008027175
1.07541046338
1.06119024508
1.04747751886
1.03415316059
1.02127340894
1.0088968958
0.996916249823
0.985391457512
0.974328122797
0.963789595633
0.953666203775
0.944037381936
0.934908112756
0.926354319408
0.91826516662
0.910711207184
0.90371129166
0.897275808768
0.891413879615
0.886198047176
0.881514975776
0.877429813268
0.873948218892
0.871072588685
0.868803593318
0.867136606689
0.866218376964
56.1971337944
56.1971337944
56.1971337944
56.1971337944
56.1971337944
56.1971337944
56.1971337944
56.1971337944
56.1971337944
56.1971337944
56.1971337944
56.1971337944
56.1971337944
56.1971337944
56.1971337944
56.1971337944
56.1971337944
56.1971337944
56.1971337933
56.1971337299
56.1971299811
56.196913538
56.1870840015
43.840768429
15.8703522372
7.55097602505
3.66777032382
2.31648792045
1.71668657303
1.4865348864
1.40279784298
1.36572154594
1.34091042252
1.3191883533
1.29844677166
1.27841109846
1.25906136614
1.24023143395
1.22197899678
1.20433335895
1.1871692313
1.17052228101
1.15445361806
1.13881560507
1.12367087391
1.10900622738
1.09488621484
1.08118219738
1.06795252133
1.05527531769
1.04301368109
1.03125414114
1.01999204992
1.00930327922
0.999077039787
0.989392132993
0.980248921012
0.971734388828
0.963724086203
0.956300625053
0.949474150438
0.943262146835
0.937732952229
0.932766507699
0.928435603162
0.924743058084
0.921689837345
0.919276959344
0.917499313027
0.916528075068
56.1971337944
56.1971337944
56.1971337944
56.1971337944
56.1971337944
56.1971337944
56.1971337944
56.1971337944
56.1971337945
56.1971337945
56.1971337945
56.1971337945
56.1971337945
56.1971337945
56.1971337945
56.1971337945
56.1971337945
56.1971337944
56.1971337917
56.1971336281
56.1971239896
56.1965655087
56.1726183204
32.2046087861
12.1173526168
6.17334860392
3.31318598014
2.19966780007
1.72291266761
1.54422955532
1.47643719857
1.44235862725
1.41702886916
1.39394071396
1.37183611793
1.3505365778
1.3298495959
1.30980989805
1.29046010078
1.27163261506
1.2534572083
1.23577843439
1.21864599928
1.20211918072
1.18605653993
1.17052174268
1.15556474697
1.14105214719
1.12705631515
1.1136436194
1.10067800666
1.08824864383
1.07634630136
1.06505942604
1.05425498047
1.04402582885
1.03437939886
1.02539731569
1.01694841126
1.00912488683
1.00193174027
0.995451835993
0.989548878654
0.984318046753
0.979753273863
0.975859248352
0.972636358757
0.970083435662
0.96819581732
0.967171663562
56.1971337945
56.1971337945
56.1971337945
56.1971337945
56.1971337945
56.1971337945
56.1971337945
56.1971337945
56.1971337945
56.1971337945
56.1971337945
56.1971337945
56.1971337945
56.1971337945
56.1971337945
56.1971337945
56.1971337945
56.1971337944
56.1971337865
56.1971333233
56.1971064817
56.1955932753
56.1358263979
22.7016823511
10.4868743163
5.02338505672
3.0163089812
2.11593390618
1.74546750307
1.60729363377
1.55118377378
1.5190520651
1.49292075589
1.46850619636
1.44509415847
1.42238848074
1.40049827749
1.37924189847
1.35872986438
1.33879527769
1.31948828236
1.30086214385
1.28275282779
1.26522939607
1.24834214711
1.23193208257
1.21615767685
1.20085761894
1.18611511484
1.17199220746
1.15834919522
1.14527325715
1.13276624342
1.12090125231
1.10955756078
1.0988143181
1.08875701005
1.07925416675
1.07039344751
1.06218661547
1.05464155329
1.04784543316
1.04166241486
1.03617606955
1.03138884329
1.02730210419
1.02391539591
1.0212272267
1.01923310176
1.01816121599
56.1971337945
56.1971337945
56.1971337945
56.1971337945
56.1971337945
56.1971337945
56.1971337945
56.1971337945
56.1971337945
56.1971337945
56.1971337945
56.1971337945
56.1971337945
56.1971337945
56.1971337945
56.1971337945
56.1971337945
56.1971337942
56.1971337735
56.1971325835
56.1970639148
56.1932387096
53.8072303347
18.4781283372
9.04008202963
4.3748332049
2.77559237558
2.06502138824
1.78199885655
1.6750217805
1.62707080096
1.59572607742
1.56852631452
1.54282908414
1.51797344817
1.49403439926
1.47080328072
1.44841062171
1.42666022417
1.40570079832
1.38534451939
1.36571767593
1.34665580344
1.3282130378
1.31045727869
1.29321965566
1.2766547023
1.26059174037
1.24511778038
1.23030367518
1.21600770865
1.20230963111
1.18929468055
1.17681251312
1.16495366903
1.15372846177
1.14322086628
1.13330036816
1.12405640072
1.11549117684
1.10769814519
1.10052910088
1.09407603858
1.08834493387
1.08334536037
1.07907442073
1.07552763942
1.07278784217
1.07068494938
1.06956680584
56.1971337946
56.1971337946
56.1971337946
56.1971337946
56.1971337946
56.1971337946
56.1971337946
56.1971337946
56.1971337946
56.1971337946
56.1971337946
56.1971337946
56.1971337946
56.1971337946
56.1971337946
56.1971337946
56.1971337946
56.1971337933
56.1971337171
56.197129303
56.196879491
56.185976762
42.7527875275
15.6871700107
7.63836892836
3.85131624691
2.5885657875
2.04278549064
1.83038522224
1.74627737081
1.7036749405
1.67230325041
1.64383805464
1.61671766047
1.59050177752
1.56526222045
1.54078689989
1.51721110616
1.49433270548
1.47229903006
1.45090462676
1.43021764278
1.41029213653
1.39096222888
1.37236152855
1.35431872113
1.33699019482
1.3201995108
1.30403068294
1.28857394588
1.27364832657
1.25936092718
1.2457901492
1.23278232673
1.22043142696
1.20883277872
1.19782398392
1.18751082502
1.17790162488
1.16909123433
1.16091534438
1.15347069902
1.14677003259
1.14081908026
1.13561500508
1.13125257132
1.12755634982
1.12461217069
1.12240942026
1.12124779316
56.1971337946
56.1971337946
56.1971337946
56.1971337946
56.1971337946
56.1971337946
56.1971337946
56.1971337946
56.1971337946
56.1971337946
56.1971337946
56.1971337946
56.1971337946
56.1971337946
56.1971337946
56.1971337946
56.1971337945
56.1971337901
56.1971335317
56.1971186782
56.1962883121
56.1630296186
28.5564068333
11.5984824411
5.91907813902
3.43339507797
2.4541392515
2.04567213689
1.88753777683
1.8198854976
1.78049959919
1.74842522874
1.71862529692
1.68999644409
1.66249749392
1.63587875065
1.61027126448
1.58553658198
1.56156831336
1.53848020379
1.51609401032
1.4944550328
1.47363308235
1.45343774079
1.4340145888
1.41518470783
1.39711894962
1.37964046766
1.36282114028
1.3467433052
1.33123222666
1.31647984469
1.30230333295
1.28881343451
1.27600535555
1.26398306037
1.25257954079
1.24189567643
1.23203564417
1.22282736578
1.21437629191
1.20668346002
1.19974965159
1.19367460397
1.18828367597
1.1836723133
1.179837568
1.17677268089
1.17446772523
1.17326315783
56.1971337946
56.1971337946
56.1971337946
56.1971337946
56.1971337946
56.1971337946
56.1971337946
56.1971337946
56.1971337946
56.1971337946
56.1971337946
56.1971337946
56.1971337946
56.1971337946
56.1971337946
56.1971337946
56.1971337944
56.1971337786
56.1971328761
56.1970825705
56.1943768096
56.0972876856
19.4750832287
9.72699597972
4.79889396533
3.10841073938
2.36769464464
2.06910206875
1.95094027278
1.8948305651
1.8569728821
1.8240073033
1.79271730243
1.7627525306
1.73388536073
1.70597333932
1.6791641246
1.65321710983
1.62826525447
1.60416489321
1.58081295993
1.55835335804
1.53658520686
1.51566210315
1.49537814348
1.47580958878
1.45705566535
1.4388987474
1.42154385434
1.40478706549
1.38873483309
1.37347438534
1.3588211962
1.34487818201
1.3317470728
1.31924688702
1.30748377982
1.2965604207
1.28629600299
1.27680593526
1.26808739225
1.26025436786
1.25310511967
1.24674971658
1.2411881415
1.23642087338
1.23244700249
1.22925746018
1.22694147045
1.22569051327
56.1971337947
56.1971337947
56.1971337947
56.1971337947
56.1971337947
56.1971337947
56.1971337947
56.1971337947
56.1971337947
56.1971337947
56.1971337947
56.1971337947
56.1971337947
56.1971337947
56.1971337947
56.1971337947
56.1971337935
56.1971337245
56.1971297588
56.1969077721
56.1872579231
44.4664755617
16.2599597241
8.02380253069
4.12697806736
2.86616206641
2.32520180916
2.1097949895
2.01959053764
1.97038530635
1.93298024834
1.89867586386
1.866056176
1.83470637547
1.80454034323
1.77539559704
1.74741256348
1.72034800036
1.69433516786
1.66926277463
1.64499279892
1.62166995326
1.59907700412
1.57738187427
1.55636701056
1.53621004079
1.51670770984
1.49805546956
1.48002455183
1.46272032983
1.4462564616
1.43041411686
1.41531036288
1.40105731658
1.3874492899
1.37459734134
1.36260882032
1.35128491274
1.34074703614
1.33110336234
1.32215347051
1.31401169641
1.30667540373
1.30014411294
1.29453394303
1.28961403016
1.28550654652
1.28219928587
1.27968118466
1.27838978008
56.1971337947
56.1971337947
56.1971337947
56.1971337947
56.1971337947
56.1971337947
56.1971337947
56.1971337947
56.1971337947
56.1971337947
56.1971337947
56.1971337947
56.1971337947
56.1971337947
56.1971337947
56.1971337946
56.1971337895
56.1971334926
56.1971166927
56.1961885641
56.1601977264
27.7757043441
11.5755449826
6.14465731846
3.62782119322
2.70270632637
2.31765964465
2.16281404735
2.09129846839
2.04610908584
2.00801486477
1.97242958287
1.93838942906
1.90569886486
1.87428608037
1.84395633043
1.8148580538
1.78684820066
1.75975527252
1.73375288666
1.70858161388
1.68443413589
1.66105865271
1.63864203426
1.61694513387
1.5961599032
1.57605395045
1.55683819204
1.53828255977
1.52060024848
1.50356890285
1.48730389291
1.47190905817
1.45717434274
1.44333305021
1.43014864139
1.41775971266
1.40616324958
1.39549103503
1.38550995649
1.3763582962
1.36802516398
1.36063034839
1.35394443451
1.34808484882
1.34303822957
1.33880609548
1.33538422143
1.33275906923
1.33155127454
56.1971337947
56.1971337947
56.1971337947
56.1971337947
56.1971337947
56.1971337947
56.1971337947
56.1971337947
56.1971337947
56.1971337947
56.1971337947
56.1971337947
56.1971337947
56.1971337947
56.1971337947
56.1971337943
56.1971337712
56.1971324851
56.1970616974
56.1932237815
54.0737561101
18.7089181752
9.39717110349
4.7982813361
3.260999295
2.60480133904
2.33704504293
2.22393278483
2.1645570796
2.12110703069
2.08208197919
2.04507167459
2.00963270588
1.97562906764
1.94300842159
1.91155130096
1.8814037689
1.85239922673
1.82438557955
1.79751415153
1.77164502403
1.74662000746
1.72263739829
1.69942829012
1.67719924678
1.65570706013
1.63516750699
1.61532630885
1.59641072438
1.5781738836
1.56085511611
1.54420265628
1.5283430699
1.51340277572
1.49914405362
1.48568955007
1.47317129302
1.46134070298
1.45033687884
1.44015831714
1.43094205758
1.42243782401
1.41477629409
1.40795510686
1.40195402824
1.39690591839
1.39255405342
1.38901868965
1.38628210718
1.3849047991
56.1971337947
56.1971337947
56.1971337947
56.1971337947
56.1971337947
56.1971337947
56.1971337947
56.1971337947
56.1971337947
56.1971337947
56.1971337947
56.1971337947
56.1971337947
56.1971337947
56.1971337947
56.1971337922
56.1971336518
56.1971258693
56.196704402
56.1801023642
36.9698200039
14.1512609866
7.47927599471
4.08603625266
3.01452248061
2.56226230956
2.3768693391
2.29105676013
2.23845005608
2.19504935413
2.1547627808
2.11636853467
2.07962443741
2.04440116844
2.01060203943
1.97816863147
1.94692297028
1.91701063279
1.88824407876
1.86046419065
1.83385474159
1.80824506194
1.78348767801
1.7597943389
1.73688196444
1.71497333532
1.69381343122
1.67362379545
1.65415439872
1.63564477508
1.61784667835
1.6008752421
1.58484014734
1.56950111032
1.55499038116
1.54142863435
1.52857137327
1.51655730203
1.50550796934
1.49516791236
1.485674915
1.47703222489
1.46935858062
1.46240985854
1.45630098672
1.45102047956
1.44656102154
1.44290897926
1.44004766126
1.43875158863
56.1971337948
56.1971337948
56.1971337948
56.1971337948
56.1971337948
56.1971337948
56.1971337948
56.1971337948
56.1971337948
56.1971337948
56.1971337948
56.1971337948
56.1971337948
56.1971337948
56.1971337945
56.1971337805
56.1971329989
56.197090548
56.1948518435
56.1165576708
20.6459303052
10.3385860795
5.35615108445
3.59569496012
2.86437600572
2.56001436462
2.42975213654
2.36111736935
2.31153567829
2.26743724309
2.22584633497
2.18614653535
2.14816211745
2.11180740599
2.07696012813
2.0435506001
2.01149143802
1.98059643425
1.95103193548
1.92264564421
1.8952347189
1.86900308156
1.8437846194
1.81942216665
1.7961482415
1.77365697818
1.75219679304
1.73148806324
1.71178346861
1.69281733194
1.67484040665
1.65756834623
1.64114101023
1.62571091264
1.61098741769
1.59710715657
1.58422005118
1.57205372224
1.56073057525
1.55025951768
1.54078993853
1.5320271197
1.52412135418
1.51705652847
1.51098539264
1.50559918485
1.50103838908
1.49728382229
1.49431367289
1.49283846849
56.1971337948
56.1971337948
56.1971337948
56.1971337948
56.1971337948
56.1971337948
56.1971337948
56.1971337948
56.1971337948
56.1971337948
56.1971337948
56.1971337948
56.1971337948
56.1971337948
56.197133793
56.1971336933
56.1971281595
56.196829543