/*--------------------------------*- C++ -*----------------------------------*\
| =========                 |                                                 |
| \\      /  F ield         | foam-extend: Open Source CFD                    |
|  \\    /   O peration     | Version:     4.1                                |
|   \\  /    A nd           | Web:         http://www.foam-extend.org         |
|    \\/     M anipulation  |                                                 |
\*---------------------------------------------------------------------------*/
FoamFile
{
    version     2.0;
    format      ascii;
    class       volScalarField;
    location    "0.0004";
    object      mu;
}
// * * * * * * * * * * * * * * * * * * * * * * * * * * * * * * * * * * * * * //

dimensions      [1 -1 -1 0 0 0 0];

internalField   nonuniform List<scalar> 
8400
(
1.6889996149e-05
1.6889996149e-05
1.6889996149e-05
1.6889996149e-05
1.6889996149e-05
1.6889996149e-05
1.6889996149e-05
1.6889996149e-05
1.6889996149e-05
1.6889996149e-05
1.6889996149e-05
1.6889996149e-05
1.6889996149e-05
1.6889996149e-05
1.6889996149e-05
1.6889996149e-05
1.6889996149e-05
1.6889996149e-05
1.6889996149e-05
1.6889996149e-05
1.6889996149e-05
1.6889996149e-05
1.68899961493e-05
1.68899961654e-05
1.68899971013e-05
1.68900525462e-05
1.68912698755e-05
2.62412158546e-05
0.000103514751524
0.000187871052159
0.000132921667216
7.97520879504e-05
6.18787364622e-05
5.61816466306e-05
5.43585973665e-05
5.37302727589e-05
5.34590381313e-05
5.32798855585e-05
5.31233692078e-05
5.29745131308e-05
5.28396481076e-05
5.26920548061e-05
5.25427766563e-05
5.23908117875e-05
5.22341923061e-05
5.20717061902e-05
5.19023281152e-05
5.17262617896e-05
5.15540836365e-05
5.13621530407e-05
5.11619239048e-05
5.09532587898e-05
5.07382354681e-05
5.05159240283e-05
5.02878745503e-05
5.00561578867e-05
4.98340535828e-05
4.96004324014e-05
4.93689376841e-05
4.91419728222e-05
4.89234168882e-05
4.87156347673e-05
4.85212695699e-05
4.83430648741e-05
4.81972462774e-05
4.80610719315e-05
4.79493645449e-05
4.78640127101e-05
4.78064890417e-05
4.77473772778e-05
1.68899961489e-05
1.68899961489e-05
1.68899961489e-05
1.68899961489e-05
1.68899961489e-05
1.68899961489e-05
1.68899961489e-05
1.68899961489e-05
1.68899961489e-05
1.68899961489e-05
1.68899961489e-05
1.68899961489e-05
1.68899961489e-05
1.68899961489e-05
1.68899961489e-05
1.68899961489e-05
1.68899961489e-05
1.68899961489e-05
1.68899961489e-05
1.68899961489e-05
1.68899961489e-05
1.68899961489e-05
1.68899961504e-05
1.68899962434e-05
1.68900015672e-05
1.68903120806e-05
1.6894517664e-05
6.1084081834e-05
0.000150786156007
0.000200493864116
0.00010185873813
6.87328928083e-05
5.76748823604e-05
5.43425528329e-05
5.33025984341e-05
5.29768791932e-05
5.28326343962e-05
5.27056500595e-05
5.2591799647e-05
5.2472787506e-05
5.23478217587e-05
5.22159363872e-05
5.2076698032e-05
5.19297024037e-05
5.17756787653e-05
5.16131659887e-05
5.14417411894e-05
5.12620290775e-05
5.10738605878e-05
5.08771855971e-05
5.0673119743e-05
5.04723525851e-05
5.02542265606e-05
5.00307039216e-05
4.98023690866e-05
4.95717387035e-05
4.93407461163e-05
4.91106694675e-05
4.88854695343e-05
4.86666893227e-05
4.84565608054e-05
4.82579666411e-05
4.80744654837e-05
4.79184234249e-05
4.77702716971e-05
4.76442371447e-05
4.75414634683e-05
4.74630214931e-05
4.7409994569e-05
4.73691298882e-05
1.68899961488e-05
1.68899961488e-05
1.68899961488e-05
1.68899961488e-05
1.68899961488e-05
1.68899961488e-05
1.68899961488e-05
1.68899961488e-05
1.68899961488e-05
1.68899961488e-05
1.68899961488e-05
1.68899961488e-05
1.68899961488e-05
1.68899961488e-05
1.68899961488e-05
1.68899961488e-05
1.68899961488e-05
1.68899961488e-05
1.68899961488e-05
1.68899961488e-05
1.68899961488e-05
1.6889996149e-05
1.68899961572e-05
1.68899966465e-05
1.68900258671e-05
1.68908851308e-05
2.12669673489e-05
9.19353658681e-05
0.000174611066858
0.000146400251692
8.30232448166e-05
6.21616594788e-05
5.54789624332e-05
5.34818039572e-05
5.28770411779e-05
5.26736212975e-05
5.25526571665e-05
5.24536222637e-05
5.23511040791e-05
5.2241651922e-05
5.21244165034e-05
5.19988061142e-05
5.18650614205e-05
5.17225149019e-05
5.15705469937e-05
5.14088055056e-05
5.12386660442e-05
5.10589491837e-05
5.08699790793e-05
5.06734553687e-05
5.04690211538e-05
5.02572779037e-05
5.00385866165e-05
4.98266883128e-05
4.96003578e-05
4.93729393388e-05
4.91457459897e-05
4.89221287988e-05
4.87036501641e-05
4.84921128545e-05
4.82901778148e-05
4.81013227608e-05
4.79266919786e-05
4.77686299774e-05
4.76300975605e-05
4.75227742954e-05
4.74262665974e-05
4.73530882403e-05
4.73037736058e-05
4.72674776027e-05
1.68899961488e-05
1.68899961488e-05
1.68899961488e-05
1.68899961488e-05
1.68899961488e-05
1.68899961488e-05
1.68899961488e-05
1.68899961488e-05
1.68899961488e-05
1.68899961488e-05
1.68899961488e-05
1.68899961488e-05
1.68899961488e-05
1.68899961488e-05
1.68899961488e-05
1.68899961488e-05
1.68899961488e-05
1.68899961488e-05
1.68899961488e-05
1.68899961488e-05
1.68899961488e-05
1.68899961494e-05
1.68899961864e-05
1.68899983582e-05
1.68901283912e-05
1.68923855208e-05
3.88709564765e-05
0.0001366933606
0.000220664699166
0.000115490545148
7.30094091483e-05
5.89128713807e-05
5.45593620257e-05
5.32662462104e-05
5.2863410586e-05
5.27151920338e-05
5.25925180495e-05
5.2484643507e-05
5.23723396925e-05
5.22534985463e-05
5.21273183577e-05
5.19932233706e-05
5.18513034592e-05
5.17009483411e-05
5.15412737062e-05
5.13721954912e-05
5.11947956068e-05
5.1008088139e-05
5.08125072281e-05
5.06100063634e-05
5.04000403617e-05
5.01939184598e-05
4.99718025414e-05
4.97453847872e-05
4.9517513476e-05
4.92891624933e-05
4.90624115693e-05
4.88400493934e-05
4.86238700663e-05
4.84154431346e-05
4.82175481456e-05
4.80441302129e-05
4.7874055225e-05
4.77206400629e-05
4.75866917015e-05
4.74726643335e-05
4.73799818867e-05
4.73096594038e-05
4.72622890546e-05
4.72282769172e-05
1.68899961488e-05
1.68899961488e-05
1.68899961488e-05
1.68899961488e-05
1.68899961488e-05
1.68899961488e-05
1.68899961488e-05
1.68899961488e-05
1.68899961488e-05
1.68899961488e-05
1.68899961488e-05
1.68899961488e-05
1.68899961488e-05
1.68899961488e-05
1.68899961488e-05
1.68899961488e-05
1.68899961488e-05
1.68899961488e-05
1.68899961488e-05
1.68899961488e-05
1.68899961488e-05
1.68899961506e-05
1.68899962612e-05
1.68900026022e-05
1.68903718287e-05
1.68951886292e-05
6.70708337652e-05
0.000153554368911
0.000192742922342
9.8876780107e-05
6.76694318774e-05
5.74755342895e-05
5.43628426866e-05
5.34128154622e-05
5.31093190287e-05
5.29650156444e-05
5.28435562752e-05
5.27095826186e-05
5.25824493914e-05
5.24483353694e-05
5.23072631396e-05
5.21583024146e-05
5.20010568609e-05
5.18356774718e-05
5.16620606381e-05
5.14793555454e-05
5.12879972293e-05
5.10994791202e-05
5.08923762606e-05
5.0678016244e-05
5.04570540728e-05
5.02313197982e-05
5.00013418859e-05
4.9767955009e-05
4.95334965394e-05
4.93001926163e-05
4.90692191194e-05
4.88441385655e-05
4.86364529983e-05
4.84265297532e-05
4.82285533706e-05
4.80443844958e-05
4.78753206131e-05
4.7723219294e-05
4.7590233257e-05
4.74776510494e-05
4.73862108037e-05
4.73168810942e-05
4.72701943969e-05
4.7237164998e-05
1.68899961488e-05
1.68899961488e-05
1.68899961488e-05
1.68899961488e-05
1.68899961488e-05
1.68899961488e-05
1.68899961488e-05
1.68899961488e-05
1.68899961488e-05
1.68899961488e-05
1.68899961488e-05
1.68899961488e-05
1.68899961488e-05
1.68899961488e-05
1.68899961488e-05
1.68899961488e-05
1.68899961488e-05
1.68899961488e-05
1.68899961488e-05
1.68899961488e-05
1.68899961488e-05
1.6889996153e-05
1.6889996409e-05
1.68900118953e-05
1.68906780532e-05
1.85409708449e-05
8.48115826713e-05
0.000166327082158
0.000161746795061
8.88121034462e-05
6.47656252902e-05
5.69082251676e-05
5.45608432526e-05
5.38182128875e-05
5.35498622245e-05
5.33905718112e-05
5.32475047836e-05
5.31038485143e-05
5.29551060927e-05
5.28005250961e-05
5.26388918644e-05
5.2469878615e-05
5.229391701e-05
5.21099405106e-05
5.19174866701e-05
5.17175747395e-05
5.15097815126e-05
5.12942486536e-05
5.10709480753e-05
5.08418992429e-05
5.06073601417e-05
5.03683023343e-05
5.01267551452e-05
4.98833356325e-05
4.96503386427e-05
4.94086320478e-05
4.91706288821e-05
4.89383800256e-05
4.87147211516e-05
4.85004990213e-05
4.82988525817e-05
4.81116504937e-05
4.794080274e-05
4.77873209434e-05
4.76638849269e-05
4.75497724225e-05
4.74577179269e-05
4.73879348216e-05
4.7340971715e-05
4.73084801861e-05
1.68899961488e-05
1.68899961488e-05
1.68899961488e-05
1.68899961488e-05
1.68899961488e-05
1.68899961488e-05
1.68899961488e-05
1.68899961488e-05
1.68899961488e-05
1.68899961488e-05
1.68899961488e-05
1.68899961488e-05
1.68899961488e-05
1.68899961488e-05
1.68899961488e-05
1.68899961488e-05
1.68899961488e-05
1.68899961488e-05
1.68899961488e-05
1.68899961488e-05
1.6889996149e-05
1.68899961601e-05
1.68899968223e-05
1.68900363439e-05
1.68910472144e-05
2.32413093735e-05
9.64266673878e-05
0.000179790344296
0.00014050345712
8.23049082292e-05
6.30187974343e-05
5.69054181359e-05
5.50135237987e-05
5.43982775477e-05
5.41356473468e-05
5.395407926e-05
5.37840750334e-05
5.36140566997e-05
5.34399765484e-05
5.32602808615e-05
5.30758429229e-05
5.2884736834e-05
5.26866875323e-05
5.2480926857e-05
5.22681221819e-05
5.20480458021e-05
5.18201267529e-05
5.15861948943e-05
5.13458302438e-05
5.10993610367e-05
5.0848008328e-05
5.06053385839e-05
5.03484116977e-05
5.00921340547e-05
4.98360541978e-05
4.9583557259e-05
4.93362866664e-05
4.90956230163e-05
4.88636839904e-05
4.8643322047e-05
4.84471885441e-05
4.8254535428e-05
4.80786087802e-05
4.7922024974e-05
4.77850242919e-05
4.76688564562e-05
4.75746001263e-05
4.75031395474e-05
4.74553473348e-05
4.74226511601e-05
1.68899961488e-05
1.68899961488e-05
1.68899961488e-05
1.68899961488e-05
1.68899961488e-05
1.68899961488e-05
1.68899961488e-05
1.68899961488e-05
1.68899961488e-05
1.68899961488e-05
1.68899961488e-05
1.68899961488e-05
1.68899961488e-05
1.68899961488e-05
1.68899961488e-05
1.68899961488e-05
1.68899961488e-05
1.68899961488e-05
1.68899961488e-05
1.68899961488e-05
1.68899961492e-05
1.68899961731e-05
1.68899975871e-05
1.68900835064e-05
1.68917800101e-05
3.26943919553e-05
0.000125378601292
0.000205194873145
0.000124862608462
7.7834163358e-05
6.21933848472e-05
5.71784862016e-05
5.56324919017e-05
5.51061550801e-05
5.48397418622e-05
5.46346279713e-05
5.44361869365e-05
5.42370169136e-05
5.40346424266e-05
5.382745088e-05
5.3616237864e-05
5.33991805976e-05
5.31757273787e-05
5.29467521075e-05
5.2711287189e-05
5.24687642805e-05
5.2219748562e-05
5.19647847799e-05
5.17155402944e-05
5.14502663942e-05
5.11806116645e-05
5.09093397409e-05
5.06371254831e-05
5.03648341691e-05
5.00953635323e-05
4.98300806038e-05
4.95821393459e-05
4.93310680894e-05
4.90901422098e-05
4.88605977782e-05
4.86458816208e-05
4.84472706041e-05
4.82663009036e-05
4.81043072905e-05
4.79628434114e-05
4.78438671825e-05
4.77586891592e-05
4.76850719349e-05
4.7635780014e-05
4.76023345044e-05
1.68899961488e-05
1.68899961488e-05
1.68899961488e-05
1.68899961488e-05
1.68899961488e-05
1.68899961488e-05
1.68899961488e-05
1.68899961488e-05
1.68899961488e-05
1.68899961488e-05
1.68899961488e-05
1.68899961488e-05
1.68899961488e-05
1.68899961488e-05
1.68899961488e-05
1.68899961488e-05
1.68899961488e-05
1.68899961488e-05
1.68899961488e-05
1.68899961488e-05
1.68899961496e-05
1.68899962021e-05
1.6889999262e-05
1.68901820589e-05
1.6893082835e-05
4.65832822096e-05
0.000142776353699
0.000219227754543
0.0001135332892
7.47614993451e-05
6.17561561449e-05
5.76994443645e-05
5.640783575e-05
5.5929542748e-05
5.56495459581e-05
5.54173952673e-05
5.5188424871e-05
5.49589419841e-05
5.47264940523e-05
5.44900107776e-05
5.42493042438e-05
5.40044232505e-05
5.37537448549e-05
5.34986005511e-05
5.32370569753e-05
5.29823307795e-05
5.27097417608e-05
5.24318699984e-05
5.21498056987e-05
5.18633940231e-05
5.15752945668e-05
5.12855194457e-05
5.09950469741e-05
5.0718340706e-05
5.0432250607e-05
5.01523124598e-05
4.98803375847e-05
4.9616928432e-05
4.9365461395e-05
4.91271272346e-05
4.89151839567e-05
4.87086428187e-05
4.8520540445e-05
4.83527629799e-05
4.82069580741e-05
4.80837844924e-05
4.79842535954e-05
4.79086857796e-05
4.78575128055e-05
4.7822826393e-05
1.68899961488e-05
1.68899961488e-05
1.68899961488e-05
1.68899961488e-05
1.68899961488e-05
1.68899961488e-05
1.68899961488e-05
1.68899961488e-05
1.68899961488e-05
1.68899961488e-05
1.68899961488e-05
1.68899961488e-05
1.68899961488e-05
1.68899961488e-05
1.68899961488e-05
1.68899961488e-05
1.68899961488e-05
1.68899961488e-05
1.68899961488e-05
1.68899961488e-05
1.68899961505e-05
1.68899962525e-05
1.68900021051e-05
1.68903425898e-05
1.68949017735e-05
6.34273695637e-05
0.000151666902726
0.000201133516162
0.000104970224663
7.26455853008e-05
6.18132037054e-05
5.8440506177e-05
5.73202358738e-05
5.6854818831e-05
5.65633059562e-05
5.62996888948e-05
5.6038766539e-05
5.57752298416e-05
5.55098871192e-05
5.5240767862e-05
5.49688036897e-05
5.46935475356e-05
5.44255414147e-05
5.41413007031e-05
5.38522530632e-05
5.35590247052e-05
5.32609215544e-05
5.29595021909e-05
5.26543819903e-05
5.23458754042e-05
5.20482350085e-05
5.17376848152e-05
5.14292819699e-05
5.11231333505e-05
5.08210738498e-05
5.05256592937e-05
5.02506136158e-05
4.99731431508e-05
4.970917772e-05
4.94600892448e-05
4.92268123161e-05
4.90120187484e-05
4.88170049341e-05
4.86432412872e-05
4.84915702798e-05
4.83752219802e-05
4.82716770376e-05
4.81935062124e-05
4.81404889551e-05
4.81050080068e-05
1.68899961488e-05
1.68899961488e-05
1.68899961488e-05
1.68899961488e-05
1.68899961488e-05
1.68899961488e-05
1.68899961488e-05
1.68899961488e-05
1.68899961488e-05
1.68899961488e-05
1.68899961488e-05
1.68899961488e-05
1.68899961488e-05
1.68899961488e-05
1.68899961488e-05
1.68899961488e-05
1.68899961488e-05
1.68899961488e-05
1.68899961488e-05
1.68899961488e-05
1.68899961518e-05
1.68899963288e-05
1.68900062713e-05
1.68905631296e-05
1.71151710583e-05
7.89575228457e-05
0.00015984308416
0.000179303725036
9.82820954743e-05
7.12077554941e-05
6.22060595703e-05
5.93604705873e-05
5.83824353578e-05
5.79120247736e-05
5.75845252127e-05
5.72807678848e-05
5.69818604017e-05
5.66820365512e-05
5.63808881814e-05
5.60895494081e-05
5.57832399715e-05
5.54744004431e-05
5.51627954092e-05
5.48469882232e-05
5.45284517636e-05
5.4207069808e-05
5.38817964478e-05
5.35661185824e-05
5.32349353116e-05
5.29034189383e-05
5.25705983885e-05
5.22398246422e-05
5.19110656427e-05
5.15974915417e-05
5.12783215852e-05
5.09665308575e-05
5.06640418275e-05
5.03738286332e-05
5.00967280086e-05
4.984733591e-05
4.96032961081e-05
4.93782902356e-05
4.91747587171e-05
4.89936994352e-05
4.88365014461e-05
4.87036019355e-05
4.85960493059e-05
4.85143761543e-05
4.8458978019e-05
4.84223557026e-05
1.68899961488e-05
1.68899961488e-05
1.68899961488e-05
1.68899961488e-05
1.68899961488e-05
1.68899961488e-05
1.68899961488e-05
1.68899961488e-05
1.68899961488e-05
1.68899961488e-05
1.68899961488e-05
1.68899961488e-05
1.68899961488e-05
1.68899961488e-05
1.68899961488e-05
1.68899961488e-05
1.68899961488e-05
1.68899961488e-05
1.68899961488e-05
1.68899961489e-05
1.68899961551e-05
1.68899965333e-05
1.68900191039e-05
1.68908097041e-05
1.98010801175e-05
8.81456024282e-05
0.000169213502996
0.000161101656054
9.31391402527e-05
7.02783200862e-05
6.29209635093e-05
6.04521446388e-05
5.95408751862e-05
5.90722560291e-05
5.87058173586e-05
5.8359863361e-05
5.80177157147e-05
5.76894437432e-05
5.73489828684e-05
5.70075827731e-05
5.66656945405e-05
5.63213268768e-05
5.59753140516e-05
5.56265186405e-05
5.52884667291e-05
5.49345136145e-05
5.45797214329e-05
5.42234668036e-05
5.38660709982e-05
5.35095029415e-05
5.31651940866e-05
5.28109777816e-05
5.24609590625e-05
5.21152790872e-05
5.17776649778e-05
5.14482477434e-05
5.11428886813e-05
5.08368464157e-05
5.05466824467e-05
5.02731260313e-05
5.00175588228e-05
4.97833269279e-05
4.95836206241e-05
4.93943549227e-05
4.92295321398e-05
4.90906144644e-05
4.89786790399e-05
4.88936774912e-05
4.88359859313e-05
4.8798476311e-05
1.68899961488e-05
1.68899961488e-05
1.68899961488e-05
1.68899961488e-05
1.68899961488e-05
1.68899961488e-05
1.68899961488e-05
1.68899961488e-05
1.68899961488e-05
1.68899961488e-05
1.68899961488e-05
1.68899961488e-05
1.68899961488e-05
1.68899961488e-05
1.68899961488e-05
1.68899961488e-05
1.68899961488e-05
1.68899961488e-05
1.68899961488e-05
1.6889996149e-05
1.68899961627e-05
1.6889996962e-05
1.68900440066e-05
1.68911787116e-05
2.43724555429e-05
9.84807226287e-05
0.000180840794645
0.000145666164227
8.88246247671e-05
6.99106943206e-05
6.37871205703e-05
6.17069461294e-05
6.08498270948e-05
6.03482061206e-05
5.99318947299e-05
5.95473417044e-05
5.9157102281e-05
5.87712138529e-05
5.83876849969e-05
5.80058396204e-05
5.76233136326e-05
5.72415668108e-05
5.68710177282e-05
5.6487037715e-05
5.61021646e-05
5.57160140405e-05
5.53302631727e-05
5.49563555268e-05
5.45696040493e-05
5.41852408337e-05
5.38022153511e-05
5.34247215346e-05
5.306450694e-05
5.26979089587e-05
5.23401727542e-05
5.19933269477e-05
5.16574076846e-05
5.13369963682e-05
5.10443850331e-05
5.07581009287e-05
5.04919054448e-05
5.02473871649e-05
5.00256590374e-05
4.98282420619e-05
4.96574001592e-05
4.95255473728e-05
4.94087541157e-05
4.93200916922e-05
4.92598074667e-05
4.92208836047e-05
1.68899961488e-05
1.68899961488e-05
1.68899961488e-05
1.68899961488e-05
1.68899961488e-05
1.68899961488e-05
1.68899961488e-05
1.68899961488e-05
1.68899961488e-05
1.68899961488e-05
1.68899961488e-05
1.68899961488e-05
1.68899961488e-05
1.68899961488e-05
1.68899961488e-05
1.68899961488e-05
1.68899961488e-05
1.68899961488e-05
1.68899961488e-05
1.68899961492e-05
1.68899961776e-05
1.68899978336e-05
1.68900970124e-05
1.68919929908e-05
3.40097899757e-05
0.000127679015519
0.000203564750636
0.000132056402419
8.55390096049e-05
6.99684700956e-05
6.48506873323e-05
6.3062704795e-05
6.22642856198e-05
6.17387191579e-05
6.12697874783e-05
6.08181155871e-05
6.03757882804e-05
5.99395979561e-05
5.95083640239e-05
5.90920418096e-05
5.8667571096e-05
5.82441182876e-05
5.78220063829e-05
5.74010238336e-05
5.69926192823e-05
5.65716905653e-05
5.61524518761e-05
5.57346175686e-05
5.53182626598e-05
5.4917841466e-05
5.45078813897e-05
5.41041949291e-05
5.37072483846e-05
5.33172851099e-05
5.29514538502e-05
5.25852906382e-05
5.22331007593e-05
5.18960346166e-05
5.15764103001e-05
5.12897502668e-05
5.10110938873e-05
5.07553136418e-05
5.05236271022e-05
5.03186465234e-05
5.01407680999e-05
4.99908813406e-05
4.98696261412e-05
4.977704535e-05
4.97272738549e-05
4.9672817921e-05
1.68899961488e-05
1.68899961488e-05
1.68899961488e-05
1.68899961488e-05
1.68899961488e-05
1.68899961488e-05
1.68899961488e-05
1.68899961488e-05
1.68899961488e-05
1.68899961488e-05
1.68899961488e-05
1.68899961488e-05
1.68899961488e-05
1.68899961488e-05
1.68899961488e-05
1.68899961488e-05
1.68899961488e-05
1.68899961488e-05
1.68899961488e-05
1.68899961498e-05
1.68899962138e-05
1.6889999902e-05
1.68902162184e-05
1.68935389503e-05
4.96735288394e-05
0.000144149628299
0.000220173152631
0.000121056538463
8.30819912437e-05
7.03333439707e-05
6.60948497403e-05
6.45402002332e-05
6.3770510116e-05
6.32064763895e-05
6.26840217171e-05
6.2178122339e-05
6.16804274377e-05
6.12046311042e-05
6.07216470323e-05
6.024510651e-05
5.97731631105e-05
5.93046623073e-05
5.88520328968e-05
5.83896887713e-05
5.79302882177e-05
5.74737245134e-05
5.70320807975e-05
5.65809176166e-05
5.61328864873e-05
5.56903515498e-05
5.52525293568e-05
5.48353815321e-05
5.44127943348e-05
5.40008266891e-05
5.35996778322e-05
5.32262496819e-05
5.28535693451e-05
5.2499473703e-05
5.21650931181e-05
5.18515826737e-05
5.15738637441e-05
5.13063273854e-05
5.10655245823e-05
5.08519274148e-05
5.06665254082e-05
5.05105792589e-05
5.0384189594e-05
5.0288002491e-05
5.02222264756e-05
5.01799926256e-05
1.68899961488e-05
1.68899961488e-05
1.68899961488e-05
1.68899961488e-05
1.68899961488e-05
1.68899961488e-05
1.68899961488e-05
1.68899961488e-05
1.68899961488e-05
1.68899961488e-05
1.68899961488e-05
1.68899961488e-05
1.68899961488e-05
1.68899961488e-05
1.68899961488e-05
1.68899961488e-05
1.68899961488e-05
1.68899961488e-05
1.68899961488e-05
1.68899961511e-05
1.68899962888e-05
1.68900040356e-05
1.68904411393e-05
1.6896033362e-05
7.04751254236e-05
0.000153881967799
0.000201576446013
0.000112051502949
8.14364401228e-05
7.10589378687e-05
6.75442292636e-05
6.61634480973e-05
6.53843084998e-05
6.47660080167e-05
6.41844199421e-05
6.36197644348e-05
6.30774276615e-05
6.25329718346e-05
6.19978390722e-05
6.14695182349e-05
6.09611742361e-05
6.04463383113e-05
5.99355262787e-05
5.94306458272e-05
5.89421613845e-05
5.844571042e-05
5.79534199647e-05
5.7468003664e-05
5.70004446556e-05
5.65256701826e-05
5.60594866357e-05
5.56010659653e-05
5.51669096106e-05
5.47296657003e-05
5.43071354852e-05
5.38997033291e-05
5.35214716467e-05
5.31495841134e-05
5.27985382237e-05
5.24696856166e-05
5.21645192705e-05
5.1900253683e-05
5.16492526681e-05
5.14262605369e-05
5.12330229782e-05
5.10704912895e-05
5.09390403638e-05
5.08389690823e-05
5.07703159108e-05
5.07266337477e-05
1.68899961488e-05
1.68899961488e-05
1.68899961488e-05
1.68899961488e-05
1.68899961488e-05
1.68899961488e-05
1.68899961488e-05
1.68899961488e-05
1.68899961488e-05
1.68899961488e-05
1.68899961488e-05
1.68899961488e-05
1.68899961488e-05
1.68899961488e-05
1.68899961488e-05
1.68899961488e-05
1.68899961488e-05
1.68899961488e-05
1.68899961488e-05
1.68899961538e-05
1.68899964505e-05
1.68900139803e-05
1.68907524988e-05
1.86937686676e-05
8.46456817129e-05
0.000164243247139
0.000178647412671
0.000105073689851
8.04559811455e-05
7.21005030546e-05
6.91873041043e-05
6.79047839417e-05
6.70992134471e-05
6.64186556843e-05
6.5783779335e-05
6.51537734754e-05
6.45388352518e-05
6.39351737073e-05
6.33568764173e-05
6.27749925766e-05
6.22020472799e-05
6.16507889452e-05
6.10936441943e-05
6.05428836766e-05
5.99993393439e-05
5.94748770416e-05
5.89438094393e-05
5.8420214226e-05
5.79178662606e-05
5.74104988206e-05
5.69129816123e-05
5.64262759979e-05
5.59661308654e-05
5.55036565674e-05
5.50581832886e-05
5.46287495561e-05
5.42330937293e-05
5.38429300159e-05
5.34745306342e-05
5.31311690184e-05
5.28136357262e-05
5.25230991175e-05
5.22747198768e-05
5.2042486896e-05
5.18412617981e-05
5.16715613804e-05
5.15345366293e-05
5.14300276197e-05
5.13580928574e-05
5.13128361156e-05
1.68899961488e-05
1.68899961488e-05
1.68899961488e-05
1.68899961488e-05
1.68899961488e-05
1.68899961488e-05
1.68899961488e-05
1.68899961488e-05
1.68899961488e-05
1.68899961488e-05
1.68899961488e-05
1.68899961488e-05
1.68899961488e-05
1.68899961488e-05
1.68899961488e-05
1.68899961488e-05
1.68899961488e-05
1.68899961488e-05
1.6889996149e-05
1.6889996163e-05
1.68899969723e-05
1.6890043954e-05
1.68912064493e-05
2.39820623791e-05
9.67962835856e-05
0.000177039506906
0.000158077419089
9.97531846558e-05
8.00978954369e-05
7.34429656845e-05
7.0980726541e-05
6.97681431752e-05
6.89176524138e-05
6.81788665986e-05
6.74580073073e-05
6.67585829978e-05
6.60903234691e-05
6.54228950374e-05
6.47706822785e-05
6.41435476686e-05
6.35163307385e-05
6.28992523649e-05
6.23072014146e-05
6.17092548403e-05
6.11217953095e-05
6.05419439326e-05
5.99848605667e-05
5.94241920296e-05
5.88714411758e-05
5.83450792658e-05
5.78141655216e-05
5.72975067961e-05
5.67944817233e-05
5.63209930573e-05
5.58510241511e-05
5.54007124883e-05
5.49697876511e-05
5.45760908716e-05
5.41918247524e-05
5.38329097939e-05
5.35010154546e-05
5.31985358117e-05
5.29405589066e-05
5.26990021686e-05
5.24898036588e-05
5.23134906803e-05
5.21708333308e-05
5.20617972283e-05
5.19866661548e-05
5.19395183171e-05
1.68899961487e-05
1.68899961487e-05
1.68899961487e-05
1.68899961487e-05
1.68899961487e-05
1.68899961488e-05
1.68899961488e-05
1.68899961488e-05
1.68899961488e-05
1.68899961488e-05
1.68899961488e-05
1.68899961488e-05
1.68899961488e-05
1.68899961488e-05
1.68899961488e-05
1.68899961488e-05
1.68899961488e-05
1.68899961488e-05
1.68899961494e-05
1.68899961857e-05
1.68899982742e-05
1.68901205747e-05
1.68923453499e-05
3.61707322891e-05
0.000130906245836
0.000201534176923
0.000140853799107
9.55999891297e-05
8.03050758583e-05
7.50365352468e-05
7.29191822883e-05
7.17481640041e-05
7.08419684202e-05
7.00084193983e-05
6.92095050221e-05
6.84486968733e-05
6.76966272019e-05
6.69777776582e-05
6.62623617136e-05
6.55621523495e-05
6.48912103641e-05
6.42199349803e-05
6.35605350836e-05
6.29282423487e-05
6.22928919556e-05
6.16701644767e-05
6.10728134124e-05
6.04718993867e-05
5.9883346752e-05
5.93226650145e-05
5.87595455363e-05
5.82124385601e-05
5.76807405413e-05
5.71818865902e-05
5.66862613847e-05
5.62119584849e-05
5.57609483682e-05
5.53489530712e-05
5.49464207326e-05
5.45726521104e-05
5.42276323732e-05
5.39285788984e-05
5.3643746431e-05
5.33931500293e-05
5.31760388224e-05
5.29928171493e-05
5.28445520832e-05
5.27309382888e-05
5.26522953611e-05
5.2603150227e-05
1.68899961487e-05
1.68899961487e-05
1.68899961487e-05
1.68899961487e-05
1.68899961487e-05
1.68899961487e-05
1.68899961487e-05
1.68899961487e-05
1.68899961487e-05
1.68899961487e-05
1.68899961487e-05
1.68899961487e-05
1.68899961487e-05
1.68899961487e-05
1.68899961487e-05
1.68899961487e-05
1.68899961488e-05
1.68899961488e-05
1.68899961505e-05
1.68899962534e-05
1.68900020515e-05
1.68903303505e-05
1.68948860452e-05
5.93327866994e-05
0.000148378897332
0.000218939372758
0.000127360279792
9.28537868994e-05
8.09995782519e-05
7.68068318814e-05
7.49594800353e-05
7.38000710527e-05
7.28278350659e-05
7.19130058735e-05
7.10450389298e-05
7.01919236577e-05
6.93799859643e-05
6.85771878835e-05
6.78110764949e-05
6.70485595876e-05
6.6304824025e-05
6.5592047671e-05
6.48791972573e-05
6.41831769971e-05
6.35140221032e-05
6.28439234708e-05
6.22040372419e-05
6.15623255786e-05
6.09366112561e-05
6.03408602249e-05
5.9744886228e-05
5.9167053359e-05
5.86073351514e-05
5.80814431769e-05
5.75618944191e-05
5.70654484166e-05
5.66082974201e-05
5.61615490973e-05
5.5741798978e-05
5.53514418211e-05
5.49917149744e-05
5.46800002396e-05
5.43852526857e-05
5.41250295517e-05
5.3899495901e-05
5.37096055852e-05
5.35551639428e-05
5.34367164576e-05
5.33543688137e-05
5.33028425336e-05
1.68899961487e-05
1.68899961487e-05
1.68899961487e-05
1.68899961487e-05
1.68899961487e-05
1.68899961487e-05
1.68899961487e-05
1.68899961487e-05
1.68899961487e-05
1.68899961487e-05
1.68899961487e-05
1.68899961487e-05
1.68899961487e-05
1.68899961487e-05
1.68899961487e-05
1.68899961487e-05
1.68899961488e-05
1.68899961488e-05
1.68899961534e-05
1.68899964177e-05
1.68900115515e-05
1.68907324618e-05
1.81079913289e-05
8.23947542059e-05
0.000160963346402
0.000193349350051
0.00011755699439
9.12580076832e-05
8.22054603912e-05
7.88147358367e-05
7.71237363877e-05
7.59354640807e-05
7.48839085575e-05
7.38967401021e-05
7.29319165003e-05
7.20130590167e-05
7.11099101371e-05
7.02487763629e-05
6.93972618216e-05
6.85849644572e-05
6.77803483759e-05
6.70093644556e-05
6.62430565001e-05
6.54940163181e-05
6.47773987658e-05
6.40619160542e-05
6.3379189039e-05
6.26956338588e-05
6.20300967495e-05
6.13972871697e-05
6.07678249079e-05
6.01577204602e-05
5.95849248005e-05
5.90175492255e-05
5.84739937962e-05
5.79545889606e-05
5.74769046123e-05
5.7011265654e-05
5.65752534266e-05
5.61698035252e-05
5.58123494745e-05
5.54717127209e-05
5.51655040293e-05
5.48942115128e-05
5.4660200746e-05
5.44629126133e-05
5.43024697945e-05
5.41962465432e-05
5.4109938209e-05
5.40564166598e-05
1.68899961487e-05
1.68899961487e-05
1.68899961487e-05
1.68899961487e-05
1.68899961487e-05
1.68899961487e-05
1.68899961487e-05
1.68899961487e-05
1.68899961487e-05
1.68899961487e-05
1.68899961487e-05
1.68899961487e-05
1.68899961487e-05
1.68899961487e-05
1.68899961487e-05
1.68899961487e-05
1.68899961488e-05
1.6889996149e-05
1.68899961661e-05
1.68899971357e-05
1.6890052194e-05
1.68913540481e-05
2.48360583644e-05
9.79127865626e-05
0.000176232230729
0.000167247828695
0.000110196041309
9.06687140305e-05
8.38056503285e-05
8.09946841099e-05
7.94057150738e-05
7.81634806712e-05
7.701808952e-05
7.59386635968e-05
7.48867208812e-05
7.38867243914e-05
7.29047948076e-05
7.19697472832e-05
7.10483497348e-05
7.01707245834e-05
6.93001661667e-05
6.84703201001e-05
6.76449402957e-05
6.68443336025e-05
6.60778310073e-05
6.53159325144e-05
6.45894716807e-05
6.38654609382e-05
6.31605845123e-05
6.24931105303e-05
6.18287188975e-05
6.11870189201e-05
6.05843577778e-05
5.99889443458e-05
5.94197179681e-05
5.88945432971e-05
5.83796999401e-05
5.78951373278e-05
5.74418828798e-05
5.70387071808e-05
5.66509923694e-05
5.62974447308e-05
5.59807335246e-05
5.57007344483e-05
5.54582014668e-05
5.52709078838e-05
5.51043794907e-05
5.49764936724e-05
5.48865511398e-05
5.48307472659e-05
1.68899961487e-05
1.68899961487e-05
1.68899961487e-05
1.68899961487e-05
1.68899961487e-05
1.68899961487e-05
1.68899961487e-05
1.68899961487e-05
1.68899961487e-05
1.68899961487e-05
1.68899961487e-05
1.68899961487e-05
1.68899961487e-05
1.68899961487e-05
1.68899961487e-05
1.68899961487e-05
1.68899961488e-05
1.68899961498e-05
1.6889996208e-05
1.68899994719e-05
1.68901830908e-05
1.68932023417e-05
4.36013971652e-05
0.00013810251244
0.000208441856264
0.000146926080244
0.000105222133845
9.10320866019e-05
8.57696389978e-05
8.33563365086e-05
8.17768118544e-05
8.04416404848e-05
7.92074004459e-05
7.80154131464e-05
7.68874010288e-05
7.57868002354e-05
7.47403938036e-05
7.3730548227e-05
7.27385320089e-05
7.17919198776e-05
7.08591004778e-05
6.99529430388e-05
6.90876528174e-05
6.82319059158e-05
6.74135044665e-05
6.66021412922e-05
6.58304876123e-05
6.50656627667e-05
6.43231455394e-05
6.3618880841e-05
6.29213519665e-05
6.22663462799e-05
6.1616894902e-05
6.09951496768e-05
6.04187850915e-05
5.98526291236e-05
5.9316765101e-05
5.88130645395e-05
5.83603343858e-05
5.79236346884e-05
5.75230718399e-05
5.71586339374e-05
5.68312793254e-05
5.65593728895e-05
5.63083804381e-05
5.60965346136e-05
5.5924656309e-05
5.57916763832e-05
5.56981498303e-05
5.56398025708e-05
1.68899961487e-05
1.68899961487e-05
1.68899961487e-05
1.68899961487e-05
1.68899961487e-05
1.68899961487e-05
1.68899961487e-05
1.68899961487e-05
1.68899961487e-05
1.68899961487e-05
1.68899961487e-05
1.68899961487e-05
1.68899961487e-05
1.68899961487e-05
1.68899961487e-05
1.68899961487e-05
1.68899961488e-05