/*--------------------------------*- C++ -*----------------------------------*\
| =========                 |                                                 |
| \\      /  F ield         | foam-extend: Open Source CFD                    |
|  \\    /   O peration     | Version:     4.1                                |
|   \\  /    A nd           | Web:         http://www.foam-extend.org         |
|    \\/     M anipulation  |                                                 |
\*---------------------------------------------------------------------------*/
FoamFile
{
    version     2.0;
    format      ascii;
    class       volScalarField;
    location    "0.0004";
    object      N;
}
// * * * * * * * * * * * * * * * * * * * * * * * * * * * * * * * * * * * * * //

dimensions      [0 0 0 0 0 0 0];

internalField   nonuniform List<scalar> 
8400
(
7.71492890483e-105
7.71492890488e-105
7.71492890493e-105
7.71492890497e-105
7.71492890501e-105
7.71492890506e-105
7.7149289051e-105
7.71492890514e-105
7.71492890518e-105
7.71492890522e-105
7.71492890526e-105
7.7149289053e-105
7.71492890534e-105
7.71492890537e-105
7.71492890541e-105
7.71492890545e-105
7.71492890548e-105
7.71492890552e-105
7.71492890555e-105
7.71492890558e-105
7.71492890562e-105
7.71492890607e-105
7.71492893131e-105
7.71493045994e-105
7.71501918928e-105
7.72027562502e-105
7.83568418324e-105
5.57250401917e-38
0.00019104500457
0.665327778393
0.544334111771
0.3534325626
0.260501318612
0.222591597616
0.20813429072
0.203110971867
0.201310429119
0.20036428315
0.199618788652
0.198925745694
0.198304095582
0.197615429783
0.196917510053
0.196203660256
0.195464903213
0.194694396169
0.193887811945
0.193043858003
0.192218889925
0.191292254706
0.190323667867
0.189311579256
0.188264543966
0.187178290154
0.186060571232
0.184921323881
0.183828683487
0.182674702103
0.181528334719
0.180400401149
0.179310506571
0.178271115145
0.177296548423
0.176399814658
0.175665856123
0.17497656085
0.174409439703
0.173975030924
0.17368157161
0.173259362138
7.7149288944e-105
7.71492889442e-105
7.71492889443e-105
7.71492889445e-105
7.71492889447e-105
7.71492889449e-105
7.7149288945e-105
7.71492889452e-105
7.71492889454e-105
7.71492889455e-105
7.71492889457e-105
7.71492889459e-105
7.7149288946e-105
7.71492889462e-105
7.71492889463e-105
7.71492889465e-105
7.71492889466e-105
7.71492889468e-105
7.71492889469e-105
7.71492889471e-105
7.71492889476e-105
7.71492889719e-105
7.71492904336e-105
7.7149378605e-105
7.71544257323e-105
7.74488070991e-105
8.14358983402e-105
3.88333256595e-11
0.177728777502
0.694165925349
0.445385133831
0.299906303592
0.235278624515
0.210456180654
0.20155803105
0.19880199848
0.197795602048
0.197075608052
0.196464088266
0.195836816907
0.195182772452
0.194497880244
0.193777965295
0.1930223888
0.192232700656
0.191402899365
0.190529368075
0.189615731795
0.188661487471
0.187665213954
0.186633135855
0.185619863445
0.184517889347
0.183389273246
0.182235731368
0.181070375493
0.179902917822
0.178739217254
0.177597376284
0.176486173901
0.175417972599
0.174407673365
0.173470686241
0.172674114215
0.171915061074
0.171269261602
0.170741805542
0.170337851442
0.170061953763
0.169759963779
7.71492889024e-105
7.71492889025e-105
7.71492889026e-105
7.71492889027e-105
7.71492889028e-105
7.71492889029e-105
7.7149288903e-105
7.71492889032e-105
7.71492889033e-105
7.71492889034e-105
7.71492889034e-105
7.71492889035e-105
7.71492889036e-105
7.71492889037e-105
7.71492889038e-105
7.71492889039e-105
7.7149288904e-105
7.71492889041e-105
7.71492889042e-105
7.71492889043e-105
7.71492889064e-105
7.71492890323e-105
7.71492968137e-105
7.71497607456e-105
7.71774631934e-105
7.79920856724e-105
2.66791446417e-38
1.45953073084e-05
0.525312550822
0.579766808216
0.369122327544
0.263804835567
0.220238577968
0.204063890584
0.198729086805
0.197085246685
0.196308649855
0.195743496751
0.195181804164
0.194593295948
0.193969829899
0.193308900156
0.192610567747
0.191871879896
0.191088746944
0.190260033723
0.189390980258
0.188476325327
0.187517129321
0.186521900185
0.185488245077
0.184418410226
0.183313227778
0.182242474521
0.181097766622
0.179948723313
0.17880085971
0.177668872331
0.176560957119
0.175487278276
0.174461281424
0.173499022036
0.172607908011
0.171801043991
0.171091454793
0.170542678618
0.170046233099
0.169670039693
0.169415455512
0.169155976283
7.71492888807e-105
7.71492888808e-105
7.71492888809e-105
7.7149288881e-105
7.7149288881e-105
7.71492888811e-105
7.71492888812e-105
7.71492888813e-105
7.71492888813e-105
7.71492888814e-105
7.71492888815e-105
7.71492888815e-105
7.71492888816e-105
7.71492888817e-105
7.71492888817e-105
7.71492888818e-105
7.71492888819e-105
7.71492888819e-105
7.7149288882e-105
7.71492888822e-105
7.71492888913e-105
7.71492894564e-105
7.71493245025e-105
7.71513834699e-105
7.72746609513e-105
7.94145261285e-105
3.94207120932e-23
0.0449210302985
0.746109523682
0.492735012476
0.322007101764
0.243823709857
0.212891145408
0.201852216924
0.198363598194
0.197246499817
0.196518040423
0.195922070025
0.195317066414
0.194685600336
0.194021822656
0.193322857077
0.192588343375
0.191815451533
0.190998605139
0.190138109063
0.189237940561
0.188293116007
0.187305802703
0.186285697562
0.185227962729
0.184191325306
0.183073238881
0.181932443503
0.18078426428
0.17963370694
0.17849056339
0.177367588316
0.176273315322
0.175217390314
0.174213010296
0.173333367535
0.172467164053
0.171685619433
0.17100141593
0.170418604271
0.169943862972
0.169583173079
0.169339467683
0.169101563133
7.71492888678e-105
7.71492888679e-105
7.71492888679e-105
7.7149288868e-105
7.71492888681e-105
7.71492888681e-105
7.71492888682e-105
7.71492888682e-105
7.71492888683e-105
7.71492888683e-105
7.71492888684e-105
7.71492888684e-105
7.71492888685e-105
7.71492888685e-105
7.71492888686e-105
7.71492888686e-105
7.71492888687e-105
7.71492888687e-105
7.71492888688e-105
7.71492888693e-105
7.7149288898e-105
7.71492906321e-105
7.7149395411e-105
7.71554070176e-105
7.75054511148e-105
8.20720050023e-105
2.84904567162e-10
0.215852266933
0.679776056295
0.434134841241
0.294201051465
0.2335419872
0.210130942335
0.20197892906
0.199476176374
0.198509747125
0.197821725825
0.197107050928
0.196436559244
0.195736765081
0.19500607107
0.19424073593
0.193436966327
0.192595803672
0.191716425346
0.190793474345
0.189829298775
0.188882288329
0.187841918184
0.186767753809
0.185661622041
0.184530964504
0.183378200241
0.182206619146
0.181028202158
0.179855213914
0.178694363385
0.177559826534
0.176513007344
0.175451006782
0.17444944461
0.17351523499
0.172657065289
0.17188369196
0.171206531248
0.170632344779
0.170165747108
0.169810945992
0.169571487091
0.169344292174
7.71492888594e-105
7.71492888595e-105
7.71492888595e-105
7.71492888596e-105
7.71492888596e-105
7.71492888597e-105
7.71492888597e-105
7.71492888598e-105
7.71492888598e-105
7.71492888599e-105
7.71492888599e-105
7.71492888599e-105
7.714928886e-105
7.714928886e-105
7.71492888601e-105
7.71492888601e-105
7.71492888601e-105
7.71492888602e-105
7.71492888602e-105
7.71492888613e-105
7.71492889243e-105
7.7149292843e-105
7.71495355837e-105
7.71642173005e-105
7.77957664306e-105
1.01757982763e-38
1.92201073262e-06
0.406120667091
0.616521820927
0.393590362551
0.277511673047
0.228318057302
0.20994365803
0.203660897648
0.20163515366
0.200673238268
0.199902698182
0.199152019064
0.198384135586
0.197591570946
0.196768062221
0.195911612022
0.19502337088
0.194098345873
0.193132999545
0.19213239194
0.191094324117
0.190018948021
0.188904851946
0.187762810238
0.186593870894
0.185402165075
0.184197241443
0.182979668777
0.181813488481
0.180601377396
0.179408267676
0.178242958805
0.177118196521
0.176037350286
0.175018537539
0.174072037198
0.173206909644
0.172428199849
0.171802698244
0.171221251054
0.170751755716
0.170395822731
0.170156365209
0.169936380269
7.71492888536e-105
7.71492888537e-105
7.71492888537e-105
7.71492888537e-105
7.71492888538e-105
7.71492888538e-105
7.71492888539e-105
7.71492888539e-105
7.71492888539e-105
7.7149288854e-105
7.7149288854e-105
7.71492888541e-105
7.71492888541e-105
7.71492888541e-105
7.71492888542e-105
7.71492888542e-105
7.71492888542e-105
7.71492888543e-105
7.71492888543e-105
7.71492888572e-105
7.71492890293e-105
7.71492996307e-105
7.71499273751e-105
7.71873957659e-105
7.81457485624e-105
3.83347473859e-38
4.17956061843e-05
0.588507496609
0.56437107223
0.364796605469
0.266535910464
0.226420287866
0.211384099929
0.206345813754
0.204548426649
0.203530426501
0.202646996425
0.20177965034
0.200898218193
0.19999331786
0.199067283519
0.198111593192
0.197124399922
0.196100188591
0.195043195864
0.193951826778
0.192822503412
0.191663262849
0.190472089123
0.189250014927
0.188002364233
0.186799730985
0.185523187313
0.184248903359
0.182972612371
0.181712048935
0.180475874651
0.179271287111
0.178108652733
0.177000549919
0.176013645662
0.175041605047
0.174155017803
0.173364314454
0.172671627365
0.172082048518
0.17160319166
0.171240320322
0.170997531711
0.170779727501
7.71492888494e-105
7.71492888494e-105
7.71492888495e-105
7.71492888495e-105
7.71492888495e-105
7.71492888496e-105
7.71492888496e-105
7.71492888496e-105
7.71492888497e-105
7.71492888497e-105
7.71492888497e-105
7.71492888498e-105
7.71492888498e-105
7.71492888498e-105
7.71492888499e-105
7.71492888499e-105
7.71492888499e-105
7.71492888499e-105
7.71492888501e-105
7.71492888561e-105
7.71492892261e-105
7.714931194e-105
7.71506524338e-105
7.72321080474e-105
7.884047344e-105
6.13788996429e-24
0.00930507929783
0.740736168355
0.521085904705
0.34349963359
0.26019460586
0.226264484335
0.213867328923
0.209732617704
0.208058333706
0.206966137291
0.205962147473
0.204967047875
0.203960839504
0.20293346289
0.201888462509
0.200816936166
0.199715713403
0.198588565718
0.197430310566
0.196238037277
0.195013922596
0.193759263813
0.192533473002
0.191225931738
0.18989662318
0.188557531013
0.187212374377
0.185864819756
0.184528603553
0.183210044769
0.181978143292
0.180725963891
0.179522659368
0.178373753585
0.177296900313
0.176299386047
0.175389164425
0.174572753164
0.1738602031
0.17325882817
0.172830494844
0.172457813913
0.172208750291
0.171988787835
7.71492888462e-105
7.71492888462e-105
7.71492888462e-105
7.71492888463e-105
7.71492888463e-105
7.71492888463e-105
7.71492888464e-105
7.71492888464e-105
7.71492888464e-105
7.71492888464e-105
7.71492888465e-105
7.71492888465e-105
7.71492888465e-105
7.71492888466e-105
7.71492888466e-105
7.71492888466e-105
7.71492888466e-105
7.71492888467e-105
7.71492888469e-105
7.71492888602e-105
7.71492896739e-105
7.71493394043e-105
7.71522403274e-105
7.73255404358e-105
8.00756128806e-105
8.10941799826e-17
0.0873993663553
0.73357487352
0.485120545368
0.327752994305
0.255963243679
0.227583859649
0.217256769964
0.213723704243
0.21209174376
0.210902731978
0.20976947496
0.208642140573
0.207503517238
0.206347395088
0.205172340918
0.203978334183
0.202756376661
0.201513406047
0.200238581961
0.198998898415
0.197670156834
0.19631449682
0.194936509693
0.193535158107
0.192123657194
0.190702410528
0.189274394682
0.187913545674
0.186501020123
0.185118021074
0.183770505545
0.18246407695
0.181213514013
0.180024811839
0.178968555383
0.177935795554
0.17699349379
0.176152337892
0.175420573677
0.174802219062
0.174302088007
0.17392243966
0.173665183436
0.173440997231
7.71492888437e-105
7.71492888437e-105
7.71492888437e-105
7.71492888437e-105
7.71492888438e-105
7.71492888438e-105
7.71492888438e-105
7.71492888438e-105
7.71492888439e-105
7.71492888439e-105
7.71492888439e-105
7.7149288844e-105
7.7149288844e-105
7.7149288844e-105
7.7149288844e-105
7.7149288844e-105
7.71492888441e-105
7.71492888441e-105
7.71492888446e-105
7.7149288871e-105
7.71492904744e-105
7.71493872306e-105
7.71549356908e-105
7.74777313027e-105
8.18000522966e-105
1.35935018441e-10
0.189117938144
0.694838560091
0.45496156214
0.316058531976
0.254254131978
0.230148675348
0.22138862876
0.218218068978
0.216619377313
0.21531133479
0.214045336925
0.212772245638
0.211492523175
0.21019486917
0.208883826373
0.207556713123
0.206265865065
0.204895001999
0.20350111092
0.202086084019
0.200645729212
0.199186722623
0.197707523456
0.196208147064
0.194762135431
0.193248437723
0.191742639565
0.190244238864
0.188762054585
0.18730824454
0.185954389816
0.184583516678
0.183277539271
0.182043558931
0.18088499528
0.179816205851
0.178843927355
0.177976100271
0.177217159399
0.176637688877
0.176120182123
0.175730232624
0.175466083547
0.175241406157
7.71492888416e-105
7.71492888417e-105
7.71492888417e-105
7.71492888417e-105
7.71492888417e-105
7.71492888418e-105
7.71492888418e-105
7.71492888418e-105
7.71492888418e-105
7.71492888418e-105
7.71492888419e-105
7.71492888419e-105
7.71492888419e-105
7.71492888419e-105
7.7149288842e-105
7.7149288842e-105
7.7149288842e-105
7.7149288842e-105
7.71492888429e-105
7.71492888906e-105
7.71492917293e-105
7.71494595651e-105
7.71588855331e-105
7.76868133685e-105
1.36005163797e-39
2.25760998676e-07
0.307837386759
0.653157680584
0.429336697814
0.307267129942
0.254287664411
0.233702787749
0.226285504633
0.223340708222
0.221645703217
0.220178155719
0.218753743725
0.217328074677
0.215896524116
0.214512361283
0.213054876178
0.211585031455
0.21010011353
0.208593191985
0.20707229581
0.205535717025
0.203977262532
0.202464149395
0.200871115209
0.199273413281
0.19766609188
0.196064393206
0.194468538759
0.192944912351
0.191388891675
0.189865161287
0.188382992016
0.186957292916
0.185591621769
0.184363416823
0.183157712015
0.182043950407
0.181035131707
0.18013661196
0.179354994183
0.178694523959
0.178159531107
0.177754226373
0.177480303749
0.17725428281
7.714928884e-105
7.714928884e-105
7.714928884e-105
7.714928884e-105
7.71492888401e-105
7.71492888401e-105
7.71492888401e-105
7.71492888401e-105
7.71492888401e-105
7.71492888402e-105
7.71492888402e-105
7.71492888402e-105
7.71492888402e-105
7.71492888402e-105
7.71492888403e-105
7.71492888403e-105
7.71492888403e-105
7.71492888404e-105
7.71492888419e-105
7.71492889365e-105
7.71492948473e-105
7.71496534433e-105
7.7171051378e-105
7.79205776863e-105
1.78248972625e-38
5.24691548845e-06
0.447296572337
0.613896345847
0.408019569523
0.300704913048
0.25595798905
0.238171913483
0.231659025836
0.228930941001
0.227120090079
0.225486626162
0.223884010124
0.222348362833
0.22075353024
0.219153258117
0.217548535898
0.21592975456
0.214300496135
0.212653807814
0.211057587032
0.209380609023
0.207696571275
0.2060020854
0.204297356173
0.202591968599
0.200943859363
0.199241351789
0.197554985711
0.195884360589
0.194248889532
0.192647864614
0.191163424807
0.189668777038
0.188248918025
0.186907376025
0.185650999108
0.184497608418
0.183515579418
0.18258102352
0.181766082085
0.181078992313
0.180525394587
0.180106433476
0.179823799113
0.17959743123
7.71492888386e-105
7.71492888386e-105
7.71492888386e-105
7.71492888386e-105
7.71492888387e-105
7.71492888387e-105
7.71492888387e-105
7.71492888387e-105
7.71492888387e-105
7.71492888388e-105
7.71492888388e-105
7.71492888388e-105
7.71492888388e-105
7.71492888388e-105
7.71492888389e-105
7.71492888389e-105
7.71492888389e-105
7.7149288839e-105
7.71492888425e-105
7.71492890554e-105
7.71493020209e-105
7.7150059847e-105
7.71946603371e-105
7.82704141242e-105
4.48269643071e-38
6.61731897299e-05
0.598638790995
0.575953538051
0.388992274375
0.296641233037
0.258450810541
0.243472457497
0.23774110282
0.235036018173
0.233053119503
0.231275772668
0.229477599625
0.227699325042
0.225928855357
0.224163757005
0.22239144971
0.220618451139
0.218895330493
0.217103482973
0.215303724217
0.213492863744
0.211678529963
0.209917405344
0.208088453969
0.206266212616
0.204444338849
0.202643490386
0.200922278505
0.199163472601
0.197442958074
0.195770652057
0.194144724528
0.192588466331
0.191168649004
0.189773769667
0.188473518381
0.18727726335
0.186190544527
0.185221710974
0.184381471575
0.183736266368
0.183161699429
0.182727828966
0.182435237635
0.18220644625
7.71492888374e-105
7.71492888374e-105
7.71492888374e-105
7.71492888374e-105
7.71492888375e-105
7.71492888375e-105
7.71492888375e-105
7.71492888375e-105
7.71492888375e-105
7.71492888376e-105
7.71492888376e-105
7.71492888376e-105
7.71492888376e-105
7.71492888376e-105
7.71492888377e-105
7.71492888377e-105
7.71492888377e-105
7.71492888378e-105
7.71492888452e-105
7.71492892891e-105
7.71493161951e-105
7.71508861726e-105
7.72449123044e-105
7.90423892246e-105
1.33352830163e-23
0.0131958809196
0.736815928543
0.539704225902
0.373334371701
0.294511634028
0.261957689559
0.249291840987
0.244296473527
0.241634039491
0.239466688984
0.237417468614
0.23541301479
0.233431888195
0.231468432333
0.229570161534
0.227629012495
0.225687381901
0.223746453611
0.221803583552
0.219915639235
0.217961892283
0.216010148891
0.214058514615
0.212106662981
0.210226569459
0.208292826426
0.206383160214
0.204498847214
0.202641008129
0.200895889605
0.199141888235
0.197450532091
0.195826727956
0.194282260393
0.192896364437
0.191543172503
0.190299734095
0.189171839499
0.188172372912
0.187304725364
0.186574595708
0.185985067024
0.185535152885
0.185299310609
0.184994142353
7.71492888364e-105
7.71492888364e-105
7.71492888364e-105
7.71492888364e-105
7.71492888364e-105
7.71492888365e-105
7.71492888365e-105
7.71492888365e-105
7.71492888365e-105
7.71492888365e-105
7.71492888366e-105
7.71492888366e-105
7.71492888366e-105
7.71492888366e-105
7.71492888366e-105
7.71492888366e-105
7.71492888367e-105
7.71492888369e-105
7.71492888536e-105
7.71492898585e-105
7.71493504858e-105
7.71528470791e-105
7.73579252043e-105
8.0508031683e-105
1.56081466082e-16
0.0994194357827
0.735528739314
0.506393770818
0.360561411787
0.293802050101
0.266386964179
0.255706055638
0.25124415334
0.248537734399
0.246186240027
0.243930846338
0.241709993224
0.239582557527
0.237414983838
0.235270573084
0.233139267805
0.231016020998
0.228959468077
0.226849721319
0.224747708183
0.222649241788
0.220615505223
0.218528347836
0.216448089734
0.214387105189
0.212339742627
0.21038550844
0.208395264099
0.206449167156
0.204546480715
0.202773179465
0.200995584519
0.199302278285
0.197699520091
0.196191050345
0.194854906491
0.193562801607
0.192398978839
0.19136546185
0.190468140235
0.1897131775
0.18910267349
0.188639780945
0.188325584403
0.188088874099
7.71492888355e-105
7.71492888355e-105
7.71492888355e-105
7.71492888355e-105
7.71492888356e-105
7.71492888356e-105
7.71492888356e-105
7.71492888356e-105
7.71492888356e-105
7.71492888356e-105
7.71492888357e-105
7.71492888357e-105
7.71492888357e-105
7.71492888357e-105
7.71492888357e-105
7.71492888357e-105
7.71492888358e-105
7.71492888364e-105
7.71492888735e-105
7.71492910809e-105
7.71494216259e-105
7.7156765932e-105
7.75711608758e-105
8.28728515526e-105
5.22960206406e-09
0.218790655933
0.694620360068
0.475990250053
0.350789627213
0.294743766496
0.271822090968
0.262790476794
0.258632968274
0.255799607872
0.253241434395
0.250767505407
0.248387922453
0.245988503172
0.243620896392
0.241274021444
0.239009562402
0.236706146192
0.234410691791
0.232132493897
0.229922109015
0.227665126962
0.225418260501
0.223194168164
0.22104694941
0.218855170417
0.216695638021
0.214562228962
0.212538794643
0.210489837321
0.208503404512
0.206580336285
0.204793533596
0.203027038101
0.201356035813
0.199785535662
0.198324081875
0.197061033814
0.195856073631
0.194785154079
0.193856875939
0.193076372215
0.192446140855
0.191968353745
0.191643951224
0.191405625967
7.71492888347e-105
7.71492888347e-105
7.71492888348e-105
7.71492888348e-105
7.71492888348e-105
7.71492888348e-105
7.71492888348e-105
7.71492888348e-105
7.71492888349e-105
7.71492888349e-105
7.71492888349e-105
7.71492888349e-105
7.71492888349e-105
7.71492888349e-105
7.71492888349e-105
7.7149288835e-105
7.7149288835e-105
7.71492888363e-105
7.71492889136e-105
7.71492935768e-105
7.71495748837e-105
7.71661940233e-105
7.78663443024e-105
1.10735015097e-38
1.79164610429e-06
0.372206463781
0.650132973684
0.449954830245
0.343686828749
0.297154874849
0.278196170577
0.270393449935
0.266415777919
0.263413288574
0.260678784728
0.257965180688
0.255306074458
0.252684954805
0.250166291293
0.24761731978
0.245096621372
0.242662985922
0.240190637152
0.237735876244
0.235300660215
0.232944370771
0.230545098522
0.228169918178
0.225883679149
0.223563512216
0.221279843187
0.219035468592
0.216908794989
0.214760006674
0.212682801919
0.210673035219
0.20881820879
0.206980087838
0.205239362863
0.203612386795
0.202104615437
0.200722007213
0.19954255834
0.198434702431
0.197474534138
0.196665882667
0.196013744246
0.195519641558
0.195183400099
0.19494241689
7.7149288834e-105
7.71492888341e-105
7.71492888341e-105
7.71492888341e-105
7.71492888341e-105
7.71492888341e-105
7.71492888341e-105
7.71492888341e-105
7.71492888342e-105
7.71492888342e-105
7.71492888342e-105
7.71492888342e-105
7.71492888342e-105
7.71492888342e-105
7.71492888343e-105
7.71492888343e-105
7.71492888343e-105
7.7149288838e-105
7.71492890591e-105
7.71493023276e-105
7.71500696146e-105
7.7194610458e-105
7.82967107631e-105
4.24443084978e-38
4.54791262372e-05
0.55202148933
0.60447044099
0.428114620604
0.339102720747
0.300986655449
0.285298944541
0.278502246253
0.274579229754
0.271422542624
0.268377670539
0.265415609166
0.262574738408
0.259721036231
0.256916999339
0.254209567769
0.251486825138
0.248794595363
0.246201956574
0.243568206769
0.240968460955
0.238389413312
0.235903128384
0.233385924992
0.230892680941
0.228511302289
0.226095941031
0.223735301468
0.221426199392
0.219247806131
0.217074618035
0.214985387172
0.21297876232
0.211142456637
0.209340718998
0.207653120762
0.206089066767
0.204661329632
0.203445786924
0.202302685295
0.20131245588
0.200479034034
0.199806062376
0.199295316154
0.198947532653
0.198703105373
7.71492888334e-105
7.71492888334e-105
7.71492888335e-105
7.71492888335e-105
7.71492888335e-105
7.71492888335e-105
7.71492888335e-105
7.71492888335e-105
7.71492888336e-105
7.71492888336e-105
7.71492888336e-105
7.71492888336e-105
7.71492888336e-105
7.71492888336e-105
7.71492888336e-105
7.71492888337e-105
7.71492888338e-105
7.71492888435e-105
7.71492894196e-105
7.71493238262e-105
7.7151303897e-105
7.72672504539e-105
7.93764422575e-105
2.48271895868e-23
0.0209567313843
0.730594608802
0.560928009337
0.409500549368
0.336886334402
0.30602845202
0.293083876804
0.287070202086
0.283117268385
0.279649041087
0.276337099275
0.2731725586
0.27002371827
0.266999509967
0.263969663609
0.260987132288
0.258116082279
0.255226133924
0.252370479824
0.249620837524
0.246842067367
0.244104121831
0.241467332619
0.23879836507
0.236171414911
0.233659648528
0.231122674395
0.228647425463
0.226228680293
0.223954023167
0.221680638079
0.219497906534
0.217413860534
0.215508665708
0.213637107712
0.211894905386
0.210281010757
0.20888410897
0.207547522133
0.206371827696
0.205353600856
0.204495678613
0.203802395718
0.203274723161
0.202914212809
0.202665926531
7.71492888329e-105
7.71492888329e-105
7.71492888329e-105
7.71492888329e-105
7.71492888329e-105
7.7149288833e-105
7.7149288833e-105
7.7149288833e-105
7.7149288833e-105
7.7149288833e-105
7.7149288833e-105
7.7149288833e-105
7.71492888331e-105
7.71492888331e-105
7.71492888331e-105
7.71492888331e-105
7.71492888336e-105
7.71492888614e-105
7.71492905108e-105
7.71493880008e-105
7.71548848817e-105
7.7466127795e-105
8.17851410729e-105
1.07595597037e-12
0.14512741084
0.72964420659
0.521901253655
0.395447810362
0.336778533341
0.311980187174
0.301349111027
0.295887223026
0.291833152112
0.288113310831
0.284583121226
0.281087671207
0.277745058131
0.274415651649
0.271221987991
0.268020988029
0.264879870095
0.261854796362
0.25880789113
0.255816297133
0.252927337723
0.250013264909
0.247218660839
0.244399175219
0.241635987932
0.238994525408
0.236335957919
0.233746765581
0.231224849492
0.228849060363
0.226487804889
0.224221788034
0.222131302685
0.220077798674
0.21814319296
0.216337816335
0.214669075427
0.213223820587
0.211852393545
0.210641762704
0.209593033641
0.208711715149
0.207996978771
0.207452161811
0.207078798379
0.206826085201
7.71492888324e-105
7.71492888324e-105
7.71492888324e-105
7.71492888324e-105
7.71492888325e-105
7.71492888325e-105
7.71492888325e-105
7.71492888325e-105
7.71492888325e-105
7.71492888325e-105
7.71492888325e-105
7.71492888325e-105
7.71492888326e-105
7.71492888326e-105
7.71492888326e-105
7.71492888326e-105
7.71492888339e-105
7.71492889092e-105
7.71492932435e-105
7.714954379e-105
7.71638913251e-105
7.78473483356e-105
7.4718273709e-39
8.04127023661e-07
0.32133712633
0.677647710358
0.489245441786
0.385409463272
0.338904061187
0.319075942775
0.310144759094
0.30497267293
0.300744202491
0.296819941502
0.292961315042
0.289265818781
0.285603459197
0.28208979191
0.278587122562
0.275228649262
0.271877300366
0.268648999773
0.265416818352
0.262237025306
0.259180698537
0.256106500402
0.253159900239
0.25018906644
0.247279211851
0.244501672107
0.241720826708
0.239012114432
0.236460490493
0.233918281207
0.231471328478
0.229122275003
0.226957112149
0.224836747773
0.222844442022
0.220984060111
0.219344239796
0.217774828292
0.216362695979
0.215110962896
0.214031944633
0.213123372351
0.21238649646
0.211908469599
0.211520449435
0.211265116376
7.7149288832e-105
7.7149288832e-105
7.7149288832e-105
7.7149288832e-105
7.7149288832e-105
7.7149288832e-105
7.7149288832e-105
7.71492888321e-105
7.71492888321e-105
7.71492888321e-105
7.71492888321e-105
7.71492888321e-105
7.71492888321e-105
7.71492888321e-105
7.71492888321e-105
7.71492888322e-105
7.71492888369e-105
7.71492891113e-105
7.71493052997e-105
7.71502245424e-105
7.72024223387e-105
7.84366414263e-105
4.7178536076e-38
5.76048804645e-05
0.539225856253
0.623394626376
0.461698588744
0.379145947222
0.342846047637
0.327025104854
0.319404012483
0.31433805177
0.309869800164
0.305665352667
0.3015369574
0.297584229084
0.293667886571
0.28991377501
0.286181789013
0.282605444581
0.279029718579
0.275601641961
0.272163747091
0.268807422099
0.265577886211
0.262342777054
0.259242538546
0.25613164357
0.253083654148
0.250185483587
0.247280309507
0.244458612735
0.241799250613
0.239155948197
0.23661560719
0.234266584649
0.231951109393
0.229764178852
0.227710457074
0.225882653666
0.22411675572
0.222503084103
0.221055049796
0.219774163387
0.218664460211
0.217815344611
0.217058535589
0.21648301051
0.216084719431
0.215825386054
7.71492888316e-105
7.71492888316e-105
7.71492888316e-105
7.71492888316e-105
7.71492888316e-105
7.71492888316e-105
7.71492888316e-105
7.71492888316e-105
7.71492888317e-105
7.71492888317e-105
7.71492888317e-105
7.71492888317e-105
7.71492888317e-105
7.71492888317e-105
7.71492888317e-105
7.7149288832e-105
7.7149288848e-105
7.71492897895e-105
7.71493450482e-105
7.71524393073e-105
7.73265187337e-105
8.01889108342e-105
5.87824342681e-18
0.0521972385914
0.744025205376
0.573700840694
0.440509650053
0.376725701396
0.348514629312
0.335836363371
0.328979293585
0.323798611564
0.319105117267
0.314549926484
0.310207172017
0.305927926334
0.30182865536
0.297838635651
0.293885113364
0.290083601509
0.286307814692
0.282610177461
0.279058803582
0.275515973246
0.272108778416
0.268703384565
0.265448329357
0.262198930116
0.25902397299
0.255998255556
0.252978916386
0.250131869293
0.247291507861
0.244559172038
0.242017230274
0.23950317729
0.23711450017
0.234859133267
0.232830445121
0.230865171313
0.229058194842
0.227410155756
0.225926363865
0.224698350901
0.223560182905
0.222603247916
0.221831210222
0.221239246168
0.220829496418
0.220566080349
7.71492888312e-105
7.71492888312e-105
7.71492888312e-105
7.71492888312e-105
7.71492888312e-105
7.71492888313e-105
7.71492888313e-105
7.71492888313e-105
7.71492888313e-105
7.71492888313e-105
7.71492888313e-105
7.71492888313e-105
7.71492888313e-105
7.71492888314e-105
7.71492888314e-105
7.71492888324e-105
7.71492888911e-105
7.71492922652e-105
7.71494846164e-105
7.71599323487e-105
7.77172970897e-105
8.45296240315e-105
5.50925283285e-08
0.231093945899
0.712831910824
0.531429020552
0.42557273379
0.376752417797
0.355411097414
0.345062311806
0.338672887912
0.333392071097
0.32836339298
0.323579943049
0.318949313144
0.314396110799
0.310049122483
0.305763825514
0.301649213112
0.297640020628
0.293658332488
0.289837503035
0.286038650053
0.282393682879
0.278753970643
0.275191119668
0.27179106432
0.268387525162
0.265153827133
0.261928131855
0.258801092699
0.255851836892
0.252922299562
0.250103553955
0.247479198622
0.244896837274
0.242442804294
0.240213542054
0.238042599052
0.236027876691
0.23417290419
0.232573445352
0.231052184637
0.229707764928
0.228543991556
0.22756505796
0.226771197316
0.226162025226
0.225827383414
0.225557194806
7.71492888309e-105
7.71492888309e-105
7.71492888309e-105
7.71492888309e-105
7.71492888309e-105
7.71492888309e-105
7.71492888309e-105
7.71492888309e-105
7.7149288831e-105
7.7149288831e-105
7.7149288831e-105
7.7149288831e-105
7.7149288831e-105
7.7149288831e-105
7.71492888311e-105
7.71492888354e-105
7.71492890901e-105
7.71493040122e-105
7.71501456632e-105
7.71972325893e-105
7.83894836256e-105
3.9845997823e-38
2.82789180321e-05
0.477727625347
0.651856791455
0.497390039139
0.416478473351
0.380002073317
0.363407833755
0.354643435743
0.348502038695
0.342935356887
0.337687657524
0.33262575979
0.327730773333
0.322923224972
0.318323898148
0.313795607019
0.309449573202
0.305231460667
0.301056699074
0.297051140872
0.293073190593
0.289263180199
0.285464955128
0.281832434551
0.278212161022
0.274771995698
0.271333498556
0.267989715984
0.26483044581
0.261694415795
0.258668414147
0.255849389382
0.253069776248
0.250420257732
0.247992828789
0.245620992845
0.243404719302
0.241437529552
0.23954177449
0.237819399073
0.23627073629
0.234899092268
0.233807534563
0.232803530843
0.231987654717
0.231362162877
0.230923081885
0.230649299233
7.71492888306e-105
7.71492888306e-105
7.71492888306e-105
7.71492888306e-105
7.71492888306e-105
7.71492888306e-105
7.71492888306e-105
7.71492888306e-105
7.71492888306e-105
7.71492888307e-105
7.71492888307e-105
7.71492888307e-105
7.71492888307e-105
7.71492888307e-105
7.71492888311e-105
7.71492888504e-105
7.71492899684e-105
7.71493544503e-105
7.71529202017e-105
7.73505078026e-105
8.05253920372e-105
4.36628537615e-17
0.0542627729623
0.73339551798
0.595255721139
0.472301878827
0.412547864872
0.385430284961
0.372308076462
0.364507588282
0.358241755466
0.352473347175