/*--------------------------------*- C++ -*----------------------------------*\
| =========                 |                                                 |
| \\      /  F ield         | foam-extend: Open Source CFD                    |
|  \\    /   O peration     | Version:     4.1                                |
|   \\  /    A nd           | Web:         http://www.foam-extend.org         |
|    \\/     M anipulation  |                                                 |
\*---------------------------------------------------------------------------*/
FoamFile
{
    version     2.0;
    format      ascii;
    class       volScalarField;
    location    "0.0004";
    object      N2;
}
// * * * * * * * * * * * * * * * * * * * * * * * * * * * * * * * * * * * * * //

dimensions      [0 0 0 0 0 0 0];

internalField   nonuniform List<scalar> 
8400
(
0.767082
0.767082
0.767082
0.767082
0.767082
0.767082
0.767082
0.767082
0.767082
0.767082
0.767082
0.767082
0.767082
0.767082
0.767082
0.767082
0.767082
0.767082
0.767082
0.767082
0.767082
0.767082
0.767082
0.767082
0.767082
0.767082
0.767082
0.767082
0.756491185974
0.10052619256
5.1999916459e-05
8.60217809203e-06
3.36588266026e-06
2.20754359677e-06
1.86280955083e-06
1.74988078614e-06
1.70681756264e-06
1.68195164989e-06
1.66137933533e-06
1.6422665706e-06
1.62506635669e-06
1.6064212587e-06
1.58760095393e-06
1.56862865187e-06
1.54913972901e-06
1.52911276839e-06
1.50831826467e-06
1.48693006261e-06
1.46612676827e-06
1.44321522735e-06
1.41950667648e-06
1.39500717027e-06
1.37012962856e-06
1.34465066865e-06
1.3187886917e-06
1.29280742874e-06
1.26831075357e-06
1.24278936397e-06
1.21779489129e-06
1.19356042535e-06
1.17053250283e-06
1.14892067573e-06
1.128894251e-06
1.11069931473e-06
1.0960120477e-06
1.08231739784e-06
1.07120620276e-06
1.06274904642e-06
1.05704488898e-06
1.04994370369e-06
0.767082
0.767082
0.767082
0.767082
0.767082
0.767082
0.767082
0.767082
0.767082
0.767082
0.767082
0.767082
0.767082
0.767082
0.767082
0.767082
0.767082
0.767082
0.767082
0.767082
0.767082
0.767082
0.767082
0.767082
0.767082
0.767082
0.767082
0.766147486917
0.588038182053
0.000392884070933
2.01552405484e-05
5.04621770373e-06
2.51915400352e-06
1.89114433364e-06
1.69888404249e-06
1.64084479534e-06
1.61819116806e-06
1.60044961578e-06
1.58517737252e-06
1.56934921573e-06
1.55304202891e-06
1.53589777461e-06
1.51808847013e-06
1.49936855122e-06
1.48009034359e-06
1.45987462872e-06
1.43883326791e-06
1.41701721521e-06
1.3943797594e-06
1.37105157218e-06
1.34713167513e-06
1.3238623136e-06
1.29887020045e-06
1.27368631304e-06
1.24828947253e-06
1.22297892008e-06
1.19796582252e-06
1.17337181017e-06
1.14966266674e-06
1.12693923848e-06
1.10537264296e-06
1.08520696389e-06
1.06682335351e-06
1.05135971695e-06
1.03676780097e-06
1.02449497348e-06
1.01453588411e-06
1.00692478163e-06
1.00182439809e-06
9.96976634655e-07
0.767082
0.767082
0.767082
0.767082
0.767082
0.767082
0.767082
0.767082
0.767082
0.767082
0.767082
0.767082
0.767082
0.767082
0.767082
0.767082
0.767082
0.767082
0.767082
0.767082
0.767082
0.767082
0.767082
0.767082
0.767082
0.767082
0.767082
0.754533050446
0.240856348116
7.5283893521e-05
9.90926983851e-06
3.44542100421e-06
2.11166591139e-06
1.74370969145e-06
1.63309325437e-06
1.59841611997e-06
1.58061611542e-06
1.56692883994e-06
1.55324403608e-06
1.53875631335e-06
1.52350779098e-06
1.50730653485e-06
1.49030074109e-06
1.47234042843e-06
1.45347335429e-06
1.43353577375e-06
1.4129162576e-06
1.39131055448e-06
1.36883064192e-06
1.34581520189e-06
1.32213388175e-06
1.29788821063e-06
1.27319081149e-06
1.24962073971e-06
1.22474930039e-06
1.20009758974e-06
1.17579040309e-06
1.15222628431e-06
1.12951384966e-06
1.10778447515e-06
1.08726642172e-06
1.06833583694e-06
1.05102795237e-06
1.03546249068e-06
1.02201425256e-06
1.011620195e-06
1.00235035836e-06
9.95368677135e-07
9.90654558127e-07
9.86421120157e-07
0.767082
0.767082
0.767082
0.767082
0.767082
0.767082
0.767082
0.767082
0.767082
0.767082
0.767082
0.767082
0.767082
0.767082
0.767082
0.767082
0.767082
0.767082
0.767082
0.767082
0.767082
0.767082
0.767082
0.767082
0.767082
0.767082
0.76707755494
0.720038792858
0.0027658565975
3.13114839486e-05
6.28410336888e-06
2.76631548632e-06
1.93958945998e-06
1.70003285157e-06
1.62744154897e-06
1.60326304972e-06
1.5859026686e-06
1.57121846488e-06
1.55631495944e-06
1.54068823401e-06
1.52433406404e-06
1.50713150558e-06
1.48916594462e-06
1.47031325594e-06
1.45059116065e-06
1.42987045368e-06
1.40846693031e-06
1.38615714057e-06
1.36301649519e-06
1.33943018806e-06
1.31525792948e-06
1.29181248839e-06
1.26684078135e-06
1.24180143602e-06
1.21693951057e-06
1.1923491982e-06
1.16824451773e-06
1.1448980045e-06
1.12256072479e-06
1.10127937957e-06
1.08127989088e-06
1.06397974316e-06
1.04720592756e-06
1.03215481791e-06
1.01920791366e-06
1.00819333101e-06
9.99337944764e-07
9.92652051957e-07
9.88142602779e-07
9.84243723155e-07
0.767082
0.767082
0.767082
0.767082
0.767082
0.767082
0.767082
0.767082
0.767082
0.767082
0.767082
0.767082
0.767082
0.767082
0.767082
0.767082
0.767082
0.767082
0.767082
0.767082
0.767082
0.767082
0.767082
0.767082
0.767082
0.767082
0.764962052587
0.550006838476
0.000295752981655
1.81804559338e-05
4.7627127322e-06
2.47612736944e-06
1.88870452511e-06
1.71213217637e-06
1.65860254017e-06
1.63623902611e-06
1.61926020676e-06
1.6011037138e-06
1.58420825297e-06
1.56649526399e-06
1.5481953222e-06
1.52900785167e-06
1.50905224605e-06
1.48827267895e-06
1.46669370242e-06
1.44432805234e-06
1.42112020325e-06
1.39854143806e-06
1.3740607072e-06
1.34901699698e-06
1.32350966408e-06
1.29780923047e-06
1.27201502001e-06
1.24616897062e-06
1.22054309212e-06
1.19538739328e-06
1.17081615564e-06
1.14725373129e-06
1.12580493653e-06
1.10433240505e-06
1.08430861654e-06
1.06597346311e-06
1.04927222997e-06
1.034399115e-06
1.02150310095e-06
1.01066950193e-06
1.00187515117e-06
9.95299390357e-07
9.90874072088e-07
9.87147819123e-07
0.767082
0.767082
0.767082
0.767082
0.767082
0.767082
0.767082
0.767082
0.767082
0.767082
0.767082
0.767082
0.767082
0.767082
0.767082
0.767082
0.767082
0.767082
0.767082
0.767082
0.767082
0.767082
0.767082
0.767082
0.767082
0.767082
0.756691061942
0.360002027369
0.000115792602103
1.25311062812e-05
4.02896865139e-06
2.35179856287e-06
1.90239211818e-06
1.76344394616e-06
1.71756555029e-06
1.69374103857e-06
1.67365625174e-06
1.65406790578e-06
1.63398092942e-06
1.61341106894e-06
1.59213352606e-06
1.57011968395e-06
1.54754642524e-06
1.52415456364e-06
1.50000253255e-06
1.47525846253e-06
1.44982175129e-06
1.42374625602e-06
1.39715806895e-06
1.37021920329e-06
1.34298018768e-06
1.3155722297e-06
1.28824513721e-06
1.26111261234e-06
1.23552540278e-06
1.20932965154e-06
1.18390381276e-06
1.1594239119e-06
1.13614145229e-06
1.11418599096e-06
1.09374237163e-06
1.07494632277e-06
1.05803335313e-06
1.04296181823e-06
1.03095654879e-06
1.01989028035e-06
1.01106533678e-06
1.00437961023e-06
9.99883207036e-07
9.96216028553e-07
0.767082
0.767082
0.767082
0.767082
0.767082
0.767082
0.767082
0.767082
0.767082
0.767082
0.767082
0.767082
0.767082
0.767082
0.767082
0.767082
0.767082
0.767082
0.767082
0.767082
0.767082
0.767082
0.767082
0.767082
0.767082
0.767082
0.754541317539
0.177614140458
6.40715876476e-05
9.60910473139e-06
3.61196781594e-06
2.32772588483e-06
1.95827742066e-06
1.84258334026e-06
1.79877638444e-06
1.77182082935e-06
1.74768229346e-06
1.7240521301e-06
1.70014858792e-06
1.67571198747e-06
1.65105060287e-06
1.62574042267e-06
1.59978868023e-06
1.57325872213e-06
1.54612902024e-06
1.51840356272e-06
1.49005094017e-06
1.46141700471e-06
1.43236991755e-06
1.402974924e-06
1.37340219158e-06
1.34526726361e-06
1.31586812406e-06
1.28699889879e-06
1.25856628231e-06
1.23092807882e-06
1.20424866199e-06
1.17864417303e-06
1.15429441963e-06
1.13144727165e-06
1.11143371651e-06
1.09194312698e-06
1.07433186118e-06
1.05888660144e-06
1.04540443896e-06
1.03412699831e-06
1.0249889605e-06
1.01806756013e-06
1.0135028418e-06
1.00985673184e-06
0.767082
0.767082
0.767082
0.767082
0.767082
0.767082
0.767082
0.767082
0.767082
0.767082
0.767082
0.767082
0.767082
0.767082
0.767082
0.767082
0.767082
0.767082
0.767082
0.767082
0.767082
0.767082
0.767082
0.767082
0.767082
0.767081324887
0.75421428142
0.0227691094476
4.14476801977e-05
7.88681415167e-06
3.41029272376e-06
2.35348182395e-06
2.04364441814e-06
1.94387019038e-06
1.89995123505e-06
1.86909479031e-06
1.84035071303e-06
1.81196029381e-06
1.78343625482e-06
1.75461906509e-06
1.72564801592e-06
1.69621164443e-06
1.66626803796e-06
1.63602520411e-06
1.60537091909e-06
1.57419821388e-06
1.54261973762e-06
1.51072852308e-06
1.47998041153e-06
1.44775220275e-06
1.41550214813e-06
1.38354438566e-06
1.35196287332e-06
1.32084135082e-06
1.29047897415e-06
1.26100799722e-06
1.23388557457e-06
1.20678501042e-06
1.1811394763e-06
1.15708102402e-06
1.13487015534e-06
1.11454310001e-06
1.09620624587e-06
1.08002108051e-06
1.06593945474e-06
1.05426747052e-06
1.04594655792e-06
1.03873420216e-06
1.0339765327e-06
1.03022708394e-06
0.767082
0.767082
0.767082
0.767082
0.767082
0.767082
0.767082
0.767082
0.767082
0.767082
0.767082
0.767082
0.767082
0.767082
0.767082
0.767082
0.767082
0.767082
0.767082
0.767082
0.767082
0.767082
0.767082
0.767082
0.767082
0.767026435737
0.677985842175
0.00128015875516
2.9507963972e-05
6.82233735372e-06
3.29472970686e-06
2.42445841257e-06
2.15821831649e-06
2.06721057606e-06
2.02095010735e-06
1.98529606879e-06
1.95105755905e-06
1.91729691767e-06
1.88356475621e-06
1.8496687499e-06
1.81560587551e-06
1.78140631158e-06
1.74690659555e-06
1.71230500835e-06
1.67731870994e-06
1.64373846828e-06
1.60829980761e-06
1.57271471711e-06
1.53713106484e-06
1.50155960659e-06
1.46632953997e-06
1.4314633297e-06
1.39706200688e-06
1.3648209081e-06
1.33198142769e-06
1.30036827256e-06
1.27010276743e-06
1.24122810198e-06
1.2140537071e-06
1.18864029868e-06
1.16634553621e-06
1.14484177868e-06
1.12556583988e-06
1.10850137211e-06
1.09382707718e-06
1.0815160431e-06
1.07167008548e-06
1.06420132087e-06
1.05914474797e-06
1.05523588305e-06
0.767082
0.767082
0.767082
0.767082
0.767082
0.767082
0.767082
0.767082
0.767082
0.767082
0.767082
0.767082
0.767082
0.767082
0.767082
0.767082
0.767082
0.767082
0.767082
0.767082
0.767082
0.767082
0.767082
0.767082
0.767082
0.765682970445
0.576675767434
0.000401792993776
2.24130646005e-05
6.14285331231e-06
3.28173184809e-06
2.53772428097e-06
2.30097231139e-06
2.21229943397e-06
2.16331876593e-06
2.12151376042e-06
2.08106698031e-06
2.04087031545e-06
2.00101103427e-06
1.96114121971e-06
1.92139693404e-06
1.8817078837e-06
1.84361407365e-06
1.80379511511e-06
1.76391951854e-06
1.72408328072e-06
1.68422457656e-06
1.64455191895e-06
1.60502795808e-06
1.56570620871e-06
1.52841468934e-06
1.49012879873e-06
1.4527388811e-06
1.41623441812e-06
1.38080572791e-06
1.34670578868e-06
1.315477152e-06
1.28444045118e-06
1.25534447562e-06
1.22827489546e-06
1.20329527976e-06
1.1805725276e-06
1.16014231708e-06
1.14216256933e-06
1.12661023472e-06
1.11481116716e-06
1.10432494829e-06
1.09652689243e-06
1.09124496003e-06
1.08719459232e-06
0.767082
0.767082
0.767082
0.767082
0.767082
0.767082
0.767082
0.767082
0.767082
0.767082
0.767082
0.767082
0.767082
0.767082
0.767082
0.767082
0.767082
0.767082
0.767082
0.767082
0.767082
0.767082
0.767082
0.767082
0.767082
0.75980714301
0.458175298097
0.00019230658729
1.78289762403e-05
5.69707806349e-06
3.33878902093e-06
2.68914435154e-06
2.47670347253e-06
2.38646699432e-06
2.32995823424e-06
2.27988160448e-06
2.23163831642e-06
2.18400343216e-06
2.13688282398e-06
2.09200017858e-06
2.0454949455e-06
1.99933800854e-06
1.95349222531e-06
1.90775052625e-06
1.86233795856e-06
1.81724375815e-06
1.7723334362e-06
1.72948765992e-06
1.68526137456e-06
1.64174466126e-06
1.59883637839e-06
1.55693404722e-06
1.51599946578e-06
1.47765096667e-06
1.43925612212e-06
1.40238285662e-06
1.36719844716e-06
1.33398048782e-06
1.30274110147e-06
1.27504867874e-06
1.24832136814e-06
1.22405378494e-06
1.20233377032e-06
1.18316479814e-06
1.16675559763e-06
1.1529268605e-06
1.14189431353e-06
1.13353416321e-06
1.12787814249e-06
1.12367475059e-06
0.767082
0.767082
0.767082
0.767082
0.767082
0.767082
0.767082
0.767082
0.767082
0.767082
0.767082
0.767082
0.767082
0.767082
0.767082
0.767082
0.767082
0.767082
0.767082
0.767082
0.767082
0.767082
0.767082
0.767082
0.767082
0.755360761709
0.318849508353
0.00011372734796
1.47940598707e-05
5.40906123095e-06
3.46570395836e-06
2.88111315639e-06
2.67942731142e-06
2.58776924793e-06
2.52221245778e-06
2.46259852932e-06
2.40479807903e-06
2.35026679997e-06
2.29460876546e-06
2.23972373367e-06
2.18565819936e-06
2.13209079688e-06
2.07915466536e-06
2.02667369578e-06
1.9767020877e-06
1.92523216756e-06
1.87457962545e-06
1.82463476047e-06
1.77537096728e-06
1.72706996414e-06
1.68129477353e-06
1.63499969687e-06
1.59007736352e-06
1.54652194637e-06
1.50478583184e-06
1.46475747887e-06
1.42831643629e-06
1.39234699489e-06
1.35880053559e-06
1.32765467906e-06
1.29896474471e-06
1.27307699221e-06
1.25130626383e-06
1.23082097294e-06
1.21321444197e-06
1.19846851435e-06
1.18671650578e-06
1.17781707578e-06
1.17181019822e-06
1.16749944698e-06
0.767082
0.767082
0.767082
0.767082
0.767082
0.767082
0.767082
0.767082
0.767082
0.767082
0.767082
0.767082
0.767082
0.767082
0.767082
0.767082
0.767082
0.767082
0.767082
0.767082
0.767082
0.767082
0.767082
0.767082
0.767082
0.754900607105
0.167460721864
7.39305148638e-05
1.25383983032e-05
5.28068802687e-06
3.63081875137e-06
3.11629383008e-06
2.92216695566e-06
2.82166750767e-06
2.74392352139e-06
2.67429527855e-06
2.60502380751e-06
2.53773642855e-06
2.47201003818e-06
2.40771193152e-06
2.34442879848e-06
2.28247994041e-06
2.2234245724e-06
2.16326766902e-06
2.10404165373e-06
2.04568175315e-06
1.98853788609e-06
1.93420212778e-06
1.87899171343e-06
1.82513762188e-06
1.77245831756e-06
1.72156349685e-06
1.67390234633e-06
1.6262592373e-06
1.58061924659e-06
1.53717086975e-06
1.49582479411e-06
1.45708034941e-06
1.42233354204e-06
1.38885246921e-06
1.35818561478e-06
1.33042585887e-06
1.30555962758e-06
1.28362929151e-06
1.2649173393e-06
1.25057832948e-06
1.23801766575e-06
1.22851660336e-06
1.22208810853e-06
1.21755688058e-06
0.767082
0.767082
0.767082
0.767082
0.767082
0.767082
0.767082
0.767082
0.767082
0.767082
0.767082
0.767082
0.767082
0.767082
0.767082
0.767082
0.767082
0.767082
0.767082
0.767082
0.767082
0.767082
0.767082
0.767082
0.767080519731
0.750702463304
0.0271290075261
5.10596597426e-05
1.09804926891e-05
5.26851500973e-06
3.84799461835e-06
3.3872228773e-06
3.20103646611e-06
3.09169073163e-06
2.99966844408e-06
2.91333643304e-06
2.83059538897e-06
2.75060979899e-06
2.67297125442e-06
2.5993923455e-06
2.5258894271e-06
2.45389933258e-06
2.38344150238e-06
2.31458786123e-06
2.24911300535e-06
2.18286635827e-06
2.11815360087e-06
2.05502579111e-06
1.99330677889e-06
1.93510757169e-06
1.8767426728e-06
1.82041341846e-06
1.76607716775e-06
1.71368126732e-06
1.66555500943e-06
1.61823942766e-06
1.57355454131e-06
1.53153945468e-06
1.4923686196e-06
1.45783470177e-06
1.4247509778e-06
1.39482820132e-06
1.36805340997e-06
1.34469465907e-06
1.32464711076e-06
1.307890201e-06
1.29449199408e-06
1.28432803355e-06
1.27893711867e-06
1.27250918629e-06
0.767082
0.767082
0.767082
0.767082
0.767082
0.767082
0.767082
0.767082
0.767082
0.767082
0.767082
0.767082
0.767082
0.767082
0.767082
0.767082
0.767082
0.767082
0.767082
0.767082
0.767082
0.767082
0.767082
0.767082
0.766980037291
0.666034836456
0.00142196561015
3.72150757978e-05
9.89403281918e-06
5.34067779772e-06
4.11945383547e-06
3.70226963397e-06
3.51750897529e-06
3.39484750188e-06
3.28633058704e-06
3.18411382579e-06
3.08559716865e-06
2.99348136343e-06
2.90186718694e-06
2.81325845338e-06
2.72744649033e-06
2.64387055454e-06
2.5648573286e-06
2.48572536946e-06
2.40860271426e-06
2.33367442427e-06
2.26264578617e-06
2.19153341865e-06
2.1224779524e-06
2.05560633793e-06
1.99085743525e-06
1.93051562786e-06
1.87050914995e-06
1.81323562741e-06
1.7586027751e-06
1.70874190841e-06
1.65986347666e-06
1.61426454938e-06
1.57195217206e-06
1.53294062743e-06
1.49895724746e-06
1.46669658815e-06
1.43807290574e-06
1.41297120305e-06
1.39140328233e-06
1.37350433385e-06
1.35907389429e-06
1.34819333626e-06
1.34084536193e-06
1.33573935233e-06
0.767082
0.767082
0.767082
0.767082
0.767082
0.767082
0.767082
0.767082
0.767082
0.767082
0.767082
0.767082
0.767082
0.767082
0.767082
0.767082
0.767082
0.767082
0.767082
0.767082
0.767082
0.767082
0.767082
0.767082
0.763826993548
0.547065866277
0.00040675095629
2.82735316512e-05
9.19407781715e-06
5.51602794755e-06
4.45767883729e-06
4.07247023041e-06
3.87911929272e-06
3.73765076826e-06
3.60952410824e-06
3.48843087543e-06
3.37477290364e-06
3.26317415947e-06
3.15598076401e-06
3.05237594475e-06
2.95504333636e-06
2.85846664887e-06
2.76482343648e-06
2.67418383599e-06
2.58854574274e-06
2.50330253125e-06
2.42061170285e-06
2.34081514239e-06
2.26566768695e-06
2.19102072048e-06
2.11921028025e-06
2.050242594e-06
1.98629412717e-06
1.92318970799e-06
1.86353493397e-06
1.8070887016e-06
1.75575026718e-06
1.70623106687e-06
1.66035582699e-06
1.61808922739e-06
1.57948577326e-06
1.54658649802e-06
1.51571582499e-06
1.4887101173e-06
1.46553126491e-06
1.44622771985e-06
1.43077241152e-06
1.41912488447e-06
1.41118040892e-06
1.40575800893e-06
0.767082
0.767082
0.767082
0.767082
0.767082
0.767082
0.767082
0.767082
0.767082
0.767082
0.767082
0.767082
0.767082
0.767082
0.767082
0.767082
0.767082
0.767082
0.767082
0.767082
0.767082
0.767082
0.767082
0.767082
0.756758441463
0.393875023528
0.000188192923948
2.25697267822e-05
8.78330781731e-06
5.78997569185e-06
4.8688623494e-06
4.4980320793e-06
4.28954196101e-06
4.12464899604e-06
3.97595804441e-06
3.83235088324e-06
3.69562879685e-06
3.56449143803e-06
3.44188774135e-06
3.3214671864e-06
3.20553943998e-06
3.096730081e-06
2.98924502501e-06
2.88539542483e-06
2.78538316016e-06
2.6909995416e-06
2.59774783298e-06
2.50780566739e-06
2.42357835739e-06
2.34035969122e-06
2.26061334115e-06
2.18427862883e-06
2.1137886034e-06
2.04434966739e-06
1.97904224456e-06
1.91731231979e-06
1.86158021698e-06
1.80771417975e-06
1.75780454452e-06
1.71210070179e-06
1.67053596392e-06
1.63308479235e-06
1.60155023639e-06
1.5724324617e-06
1.54753405152e-06
1.52667603345e-06
1.51009392321e-06
1.49750196182e-06
1.48889284922e-06
1.48322051837e-06
0.767082
0.767082
0.767082
0.767082
0.767082
0.767082
0.767082
0.767082
0.767082
0.767082
0.767082
0.767082
0.767082
0.767082
0.767082
0.767082
0.767082
0.767082
0.767082
0.767082
0.767082
0.767082
0.767082
0.767082
0.754568649422
0.214123655636
0.000104522197871
1.88246571576e-05
8.61579128914e-06
6.16863665468e-06
5.35095745222e-06
4.98677870952e-06
4.75526974586e-06
4.56472504667e-06
4.38476612151e-06
4.21495951817e-06
4.05697291635e-06
3.90318921071e-06
3.75666876957e-06
3.61934344735e-06
3.48549407233e-06
3.35696378037e-06
3.23661210847e-06
3.11809720646e-06
3.0045368439e-06
2.89506861491e-06
2.79255770068e-06
2.69182041725e-06
2.59477754139e-06
2.50475634176e-06
2.41594180095e-06
2.33158077188e-06
2.25128549311e-06
2.17745556525e-06
2.10565426963e-06
2.0384323161e-06
1.97536969332e-06
1.9189316066e-06
1.86491505827e-06
1.8153599049e-06
1.77030861884e-06
1.72989933141e-06
1.69596493495e-06
1.66458505882e-06
1.63777804019e-06
1.61535360575e-06
1.59747364206e-06
1.58386852297e-06
1.57460997868e-06
1.56854831585e-06
0.767082
0.767082
0.767082
0.767082
0.767082
0.767082
0.767082
0.767082
0.767082
0.767082
0.767082
0.767082
0.767082
0.767082
0.767082
0.767082
0.767082
0.767082
0.767082
0.767082
0.767082
0.767082
0.767082
0.767079202842
0.743379303035
0.0338037151919
6.53790566147e-05
1.62173052225e-05
8.66178669227e-06
6.64984712132e-06
5.91205709707e-06
5.54499900724e-06
5.28382363954e-06
5.05427571692e-06
4.84118023506e-06
4.64418242816e-06
4.45481470204e-06
4.27878691673e-06
4.10832288207e-06
3.9459268419e-06
3.79443307343e-06
3.64682762533e-06
3.505703842e-06
3.37388556567e-06
3.24469375563e-06
3.12122506093e-06
3.00588779047e-06
2.89277398458e-06
2.78467654872e-06
2.68426697532e-06
2.58593567426e-06
2.49263671536e-06
2.40414803191e-06
2.32308542936e-06
2.24434052555e-06
2.17061094205e-06
2.10205421177e-06
2.04070195278e-06
1.98181022355e-06
1.92821911473e-06
1.87958257637e-06
1.83812953569e-06
1.79918284656e-06
1.76547995931e-06
1.73661479843e-06
1.71244154276e-06
1.69319647891e-06
1.67851145736e-06
1.66844355868e-06
1.66196209519e-06
0.767082
0.767082
0.767082
0.767082
0.767082
0.767082
0.767082
0.767082
0.767082
0.767082
0.767082
0.767082
0.767082
0.767082
0.767082
0.767082
0.767082
0.767082
0.767082
0.767082
0.767082
0.767082
0.767082
0.766393020446
0.620523086287
0.00111869319634
4.49230228583e-05
1.46224912573e-05
8.89716458033e-06
7.22246180109e-06
6.54834878144e-06
6.16703592763e-06
5.86879438835e-06
5.59922016885e-06
5.35179615981e-06
5.11609092883e-06
4.89837488171e-06
4.68927672834e-06
4.4954827215e-06
4.3080395931e-06
4.13035147959e-06
3.96481366698e-06
3.80373622911e-06
3.65073652666e-06
3.50764807667e-06
3.36810515929e-06
3.23850777346e-06
3.11183440752e-06
2.99146666611e-06
2.87974216739e-06
2.77092939037e-06
2.66804029066e-06
2.57070266576e-06
2.48161915461e-06
2.39551235337e-06
2.31515236803e-06
2.24270325125e-06
2.17350261187e-06
2.10973527434e-06
2.05151554205e-06
1.99880362883e-06
1.95396287362e-06
1.91214453867e-06
1.87575070428e-06
1.84456845777e-06
1.81863517774e-06
1.79776963735e-06
1.78193281408e-06
1.77100093926e-06
1.76394593852e-06
0.767082
0.767082
0.767082
0.767082
0.767082
0.767082
0.767082
0.767082
0.767082
0.767082
0.767082
0.767082
0.767082
0.767082
0.767082
0.767082
0.767082
0.767082
0.767082
0.767082
0.767082
0.767082
0.767082
0.757888867072
0.444680190746
0.000299218102486
3.36624848961e-05
1.37253020856e-05
9.34577780007e-06
7.92166048248e-06
7.276287165e-06
6.86334479055e-06
6.51852685737e-06
6.20693999109e-06
5.91276661159e-06
5.64160819553e-06
5.38330109245e-06
5.1448973896e-06
4.91618674164e-06
4.70456590403e-06
4.50097531554e-06
4.31161249188e-06
4.12878728215e-06
3.95518137091e-06
3.79385569126e-06
3.63718729303e-06
3.49185003621e-06
3.3502490934e-06
3.21609343729e-06
3.09190179456e-06
2.97162408996e-06
2.85806022923e-06
2.75406098831e-06
2.6535370155e-06
2.55964597537e-06
2.47184071627e-06
2.39312255288e-06
2.31787359482e-06
2.24885229342e-06
2.18596146624e-06
2.13153134451e-06
2.08047580906e-06
2.03530029307e-06
1.99582483276e-06
1.96225071812e-06
1.93430194268e-06
1.91172689487e-06
1.89706632387e-06
1.88522227996e-06
1.87770495601e-06
0.767082
0.767082
0.767082
0.767082
0.767082
0.767082
0.767082
0.767082
0.767082
0.767082
0.767082
0.767082
0.767082
0.767082
0.767082
0.767082
0.767082
0.767082
0.767082
0.767082
0.767082
0.767082
0.767082
0.754729203641
0.226918235097
0.000135137757345
2.67751927893e-05
1.33723393259e-05
9.98306382024e-06
8.74051384371e-06
8.10417644952e-06
7.64502936663e-06
7.2423856897e-06
6.87712520076e-06
6.53375389417e-06
6.21845205193e-06
5.91916336426e-06
5.6433201103e-06
5.3804433274e-06
5.13789553674e-06
4.90466464886e-06
4.68912292404e-06
4.48126537869e-06
4.28561074859e-06
4.1038221746e-06
3.9282850353e-06
3.76569713709e-06
3.60824512013e-06
3.4592070058e-06
3.32196618921e-06
3.18906773305e-06
3.0641350043e-06
2.94986527178e-06
2.83967867578e-06
2.73700439018e-06
2.64448575167e-06
2.5558292088e-06
2.47418422377e-06
2.39947026674e-06
2.33430832095e-06
2.27273688329e-06
2.21756413582e-06
2.16893959359e-06
2.12658141976e-06
2.09033856583e-06
2.06273519635e-06
2.03845938098e-06
2.01997877207e-06
2.00707972895e-06
1.99903023811e-06
0.767082
0.767082
0.767082
0.767082
0.767082
0.767082
0.767082
0.767082
0.767082
0.767082
0.767082
0.767082
0.767082
0.767082
0.767082
0.767082
0.767082
0.767082
0.767082
0.767082
0.767082
0.767082
0.767071328444
0.712844213585
0.0187599390418
7.74227151667e-05
2.27500856691e-05
1.35256709775e-05
1.0822361613e-05
9.69933937832e-06
9.03194160416e-06
8.50475120501e-06
8.03928571457e-06
7.60702387778e-06
7.21293894419e-06
6.84249170587e-06
6.50255373295e-06
6.18569104569e-06
5.88480153322e-06
5.60731305646e-06
5.3426104433e-06
5.0937135331e-06
4.86376015159e-06
4.64317690419e-06
4.43875260522e-06
4.24205919362e-06
4.06057933656e-06
3.88589677849e-06
3.7211996854e-06
3.5695246984e-06
3.42335331837e-06
3.28986727154e-06
3.16098476911e-06
3.04074904004e-06
2.9321533722e-06
2.8280239408e-06
2.73168689011e-06
2.64325705682e-06
2.56544272979e-06
2.49176471505e-06
2.42551012858e-06
2.36627672435e-06
2.31387757296e-06
2.27105167346e-06
2.2320308081e-06
2.19945521179e-06
2.17333595228e-06
2.15331682107e-06
2.13946101067e-06
2.13073102759e-06
0.767082
0.767082
0.767082
0.767082
0.767082
0.767082
0.767082
0.767082
0.767082
0.767082
0.767082
0.767082
0.767082
0.767082
0.767082
0.767082
0.767082
0.767082
0.767082
0.767082
0.767082
0.767082
0.761562384042
0.534773687448
0.000656800390371
5.16144503423e-05
2.0569028981e-05
1.39811195893e-05
1.18317380326e-05
1.07709349204e-05
1.00523035142e-05
9.45355365069e-06
8.90629204578e-06
8.410411715e-06
7.95318068481e-06
7.52498697288e-06
7.13462347255e-06
6.76695944165e-06
6.42900579134e-06
6.11393338164e-06
5.81411016193e-06
5.53804622179e-06
5.27488986227e-06
5.03194180086e-06
4.79910696895e-06
4.58005883097e-06
4.37855418718e-06
4.18442710006e-06
4.00639512227e-06
3.835168728e-06
3.67484736972e-06
3.52853579876e-06
3.38802452137e-06
3.25705202771e-06
3.13878616137e-06
3.02592387363e-06
2.92155354504e-06
2.82930859387e-06
2.74167017081e-06
2.66224187183e-06
2.59075426555e-06
2.53015821721e-06
2.47363367887e-06
2.42440432e-06
2.38235804962e-06
2.34738785359e-06
2.3190510978e-06
2.29751510278e-06
2.28536120245e-06
2.27581880742e-06
0.767082
0.767082
0.767082
0.767082
0.767082
0.767082
0.767082
0.767082
0.767082
0.767082
0.767082
0.767082
0.767082
0.767082
0.767082
0.767082
0.767082
0.767082
0.767082
0.767082
0.767082
0.767082
0.754348194715
0.288410004418
0.000203361874196
3.85068950581e-05
1.9680479765e-05
1.4877228324e-05
1.302374711e-05
1.19671769577e-05
1.11787913463e-05
1.04806792538e-05
9.85442813221e-06
9.28140297833e-06
8.75531638078e-06
8.26453319995e-06
7.817243458e-06
7.39771504803e-06
7.01364851853e-06
6.65697527849e-06
6.31948024956e-06
6.0093345452e-06
5.71446217269e-06
5.44323955044e-06
5.18425724544e-06
4.94593065775e-06
4.71777217351e-06
4.5089793637e-06
4.30829675705e-06
4.12025557796e-06
3.948610171e-06
3.78425569792e-06
3.63097073985e-06
3.49246110424e-06
3.36034724774e-06
3.23811373247e-06
3.12906525198e-06
3.02566905204e-06
2.93139367973e-06
2.84951415047e-06
2.77249217118e-06
2.703819557e-06
2.64317118695e-06
2.59031079081e-06
2.54857036324e-06
2.51083520405e-06
2.4802122571e-06
2.4568778499e-06
2.44030468023e-06
2.42995726776e-06
0.767082
0.767082
0.767082
0.767082
0.767082
0.767082
0.767082
0.767082
0.767082
0.767082
0.767082
0.767082
0.767082
0.767082
0.767082
0.767082
0.767082
0.767082
0.767082
0.767082
0.767082
0.767048352114
0.710796030014
0.0307347635978
0.000100960870025
3.17229821846e-05
1.97558977561e-05
1.60969580261e-05
1.44025796668e-05
1.32970638132e-05
1.23936473582e-05
1.15967353166e-05
1.08753243954e-05
1.0217446673e-05
9.616138429e-06
9.05678189949e-06
8.54857547094e-06
8.08037823914e-06
7.64013437957e-06
7.23806733613e-06
6.85854812329e-06
6.51130627044e-06
6.18222259521e-06
5.88070116512e-06
5.59378071763e-06
5.33059976344e-06
5.07955286991e-06
4.84959346767e-06
4.62964384049e-06
4.42878502186e-06
4.2368821636e-06
4.05784296766e-06
3.89580204988e-06
3.7410457182e-06
3.60225021203e-06
3.46970703037e-06
3.34780862625e-06
3.23630922099e-06
3.13889969692e-06
3.04675319478e-06
2.9640971756e-06
2.8904053316e-06
2.82921498152e-06
2.77247524351e-06
2.72401258438e-06
2.68351026131e-06
2.65060192489e-06
2.62537578897e-06
2.60734659751e-06
2.59988801807e-06
0.767082
0.767082
0.767082
0.767082
0.767082
0.767082
0.767082
0.767082
0.767082
0.767082
0.767082
0.767082
0.767082
0.767082
0.767082
0.767082
0.767082
0.767082
0.767082
0.767082
0.767082
0.758631459777
0.490775685023
0.000646908809402
6.36138554752e-05
2.84664513027e-05
2.04835226865e-05
1.75646954023e-05
1.5928086149e-05
1.47360066024e-05
1.37146101516e-05
1.27986194603e-05
1.19711819064e-05
1.12191904742e-05
1.05347004212e-05
9.90114362737e-06
9.32712866287e-06
8.79876595535e-06
8.30533265239e-06
7.854748328e-06
7.43824982015e-06
7.04503032647e-06
6.68596074722e-06
6.34567369524e-06
6.0339218112e-06
5.73831018295e-06
5.46803377725e-06
5.21042313594e-06
4.97588244992e-06
4.75179401841e-06
4.54825220113e-06
4.35374654283e-06
4.17316685029e-06
4.01082891022e-06
3.85608345018e-06
3.7132503402e-06
3.58704914777e-06
3.46682722191e-06
3.35766226027e-06
3.25865721385e-06
3.1743616438e-06
3.09514838881e-06
3.0253932311e-06
2.96474484132e-06
2.91262293542e-06
2.87323651161e-06
2.83764166735e-06
2.81033415851e-06
2.79066105088e-06
2.77832287602e-06
0.767082
0.767082
0.767082
0.767082
0.767082
0.767082
0.767082
0.767082
0.767082
0.767082
0.767082
0.767082
0.767082
0.767082
0.767082
0.767082
0.767082
0.767082
0.767082
0.767082
0.767082
0.757958875451
0.198857168361
0.000193890313905
4.76529148666e-05
2.75079041985e-05
2.18540513077e-05
1.92755917971e-05
1.76274412952e-05
1.62914575886e-05
1.51244941579e-05
1.40795054679e-05
1.31373533784e-05
1.22844187882e-05
1.15088605423e-05
1.08022634184e-05
1.01487778849e-05
9.55765272497e-06
9.0135493516e-06
8.505305917e-06
8.0431226159e-06
7.61499179512e-06
7.21084617051e-06
6.84306235005e-06
6.49410807822e-06
6.17562907402e-06
5.87354712649e-06
5.59823601279e-06
5.33634344693e-06
5.09849320434e-06
4.87225194328e-06
4.66245100952e-06
4.4728470013e-06
4.29243396892e-06
4.12597998814e-06
3.97788702805e-06
3.83712000566e-06
3.70866478343e-06
3.59674348615e-06
3.49077972753e-06
3.39556818273e-06
3.3110398624e-06
3.24088797233e-06
3.17597269176e-06
3.12028021484e-06
3.07345490882e-06
3.03524656377e-06
3.00559233065e-06
2.98405152735e-06
2.97514883611e-06
0.767082
0.767082
0.767082
0.767082
0.767082
0.767082
0.767082
0.767082
0.767082
0.767082
0.767082
0.767082
0.767082
0.767082
0.767082
0.767082
0.767082
0.767082
0.767082
0.767082
0.764492794835
0.602215303803
0.00287931468337
9.9388381507e-05
4.03268024501e-05
2.79191586773e-05