/*--------------------------------*- C++ -*----------------------------------*\
| =========                 |                                                 |
| \\      /  F ield         | foam-extend: Open Source CFD                    |
|  \\    /   O peration     | Version:     4.1                                |
|   \\  /    A nd           | Web:         http://www.foam-extend.org         |
|    \\/     M anipulation  |                                                 |
\*---------------------------------------------------------------------------*/
FoamFile
{
    version     2.0;
    format      ascii;
    class       volScalarField;
    location    "0.0004";
    object      N2Plus;
}
// * * * * * * * * * * * * * * * * * * * * * * * * * * * * * * * * * * * * * //

dimensions      [0 0 0 0 0 0 0];

internalField   nonuniform List<scalar> 
8400
(
7.21720707281e-185
7.21720707285e-185
7.2172070729e-185
7.21720707294e-185
7.21720707298e-185
7.21720707302e-185
7.21720707306e-185
7.21720707311e-185
7.21720707314e-185
7.21720707318e-185
7.21720707322e-185
7.21720707326e-185
7.2172070733e-185
7.21720707333e-185
7.21720707337e-185
7.2172070734e-185
7.21720707344e-185
7.21720707347e-185
7.2172070735e-185
7.21720707353e-185
7.21720707357e-185
7.21720707401e-185
7.21720709842e-185
7.21720857677e-185
7.2172943878e-185
7.22237793944e-185
7.3339907118e-185
5.56225226727e-71
2.65296964806e-14
2.37542307321e-05
1.70116706243e-05
1.12035506222e-05
8.76143172367e-06
7.96471948304e-06
7.70352796604e-06
7.59393794154e-06
7.52988503703e-06
7.47857356785e-06
7.43087793125e-06
7.38500127178e-06
7.34329094407e-06
7.29797662685e-06
7.25224008603e-06
7.20583831676e-06
7.15816902732e-06
7.10891355544e-06
7.05774099932e-06
7.00475456088e-06
6.9529999449e-06
6.89561589994e-06
6.83588842485e-06
6.77381169193e-06
6.71002906088e-06
6.64428191231e-06
6.57704099825e-06
6.50892667684e-06
6.443736195e-06
6.37532253111e-06
6.30766488747e-06
6.24150209498e-06
6.17797418922e-06
6.11775734479e-06
6.06156093983e-06
6.01017861706e-06
5.96820651869e-06
5.92914723238e-06
5.89716612213e-06
5.87276541116e-06
5.85633865964e-06
5.84164745991e-06
7.21720706272e-185
7.21720706273e-185
7.21720706275e-185
7.21720706277e-185
7.21720706278e-185
7.2172070628e-185
7.21720706282e-185
7.21720706283e-185
7.21720706285e-185
7.21720706287e-185
7.21720706288e-185
7.2172070629e-185
7.21720706291e-185
7.21720706293e-185
7.21720706294e-185
7.21720706296e-185
7.21720706297e-185
7.21720706299e-185
7.217207063e-185
7.21720706301e-185
7.21720706306e-185
7.21720706541e-185
7.21720720678e-185
7.21721573392e-185
7.21770384666e-185
7.24617376343e-185
7.63176935004e-185
4.10120570717e-28
6.97595355493e-07
2.26385774247e-05
1.38074184497e-05
9.63945469965e-06
8.06239544583e-06
7.59867676573e-06
7.44682781458e-06
7.39035983842e-06
7.35711804572e-06
7.32214990493e-06
7.28964423173e-06
7.25524917299e-06
7.21897868861e-06
7.18051627681e-06
7.13978898761e-06
7.09664802431e-06
7.05138717059e-06
7.00353266037e-06
6.95301075743e-06
6.89999799502e-06
6.84443172946e-06
6.78625166039e-06
6.72583636929e-06
6.66635716646e-06
6.60181007066e-06
6.53575814163e-06
6.46836989611e-06
6.40039531814e-06
6.33241633574e-06
6.26482807675e-06
6.19881280936e-06
6.13481410027e-06
6.07347369449e-06
6.01560329688e-06
5.96225084527e-06
5.91695813519e-06
5.87405705308e-06
5.83760469381e-06
5.80791837768e-06
5.78529258487e-06
5.77006173981e-06
5.75974130703e-06
7.2172070587e-185
7.21720705871e-185
7.21720705872e-185
7.21720705873e-185
7.21720705874e-185
7.21720705875e-185
7.21720705876e-185
7.21720705877e-185
7.21720705878e-185
7.21720705879e-185
7.2172070588e-185
7.21720705881e-185
7.21720705881e-185
7.21720705882e-185
7.21720705883e-185
7.21720705884e-185
7.21720705885e-185
7.21720705886e-185
7.21720705887e-185
7.21720705888e-185
7.21720705908e-185
7.21720707126e-185
7.21720782381e-185
7.21725269112e-185
7.21993182259e-185
7.2987147783e-185
2.70144323956e-71
6.75287751813e-17
1.3372739913e-05
1.81377561679e-05
1.15245829143e-05
8.68140444195e-06
7.71978472312e-06
7.43900589861e-06
7.34626260753e-06
7.30705648489e-06
7.2766666554e-06
7.24946086352e-06
7.22051277912e-06
7.18922338679e-06
7.15546043055e-06
7.11904464985e-06
7.08009068201e-06
7.03839366524e-06
6.99381154872e-06
6.94622594237e-06
6.89608959873e-06
6.84300494005e-06
6.78707045229e-06
6.72884332432e-06
6.66825167789e-06
6.60551361892e-06
6.54081337203e-06
6.47818493404e-06
6.41142468413e-06
6.34440838663e-06
6.2775522949e-06
6.21188314655e-06
6.14785367509e-06
6.08599254164e-06
6.02705409621e-06
5.97203664573e-06
5.92126934537e-06
5.87537818414e-06
5.83525758942e-06
5.80418877861e-06
5.77633781035e-06
5.75523258747e-06
5.74103097642e-06
5.73168512207e-06
7.2172070566e-185
7.21720705661e-185
7.21720705661e-185
7.21720705662e-185
7.21720705663e-185
7.21720705664e-185
7.21720705664e-185
7.21720705665e-185
7.21720705666e-185
7.21720705666e-185
7.21720705667e-185
7.21720705668e-185
7.21720705668e-185
7.21720705669e-185
7.2172070567e-185
7.2172070567e-185
7.21720705671e-185
7.21720705671e-185
7.21720705672e-185
7.21720705674e-185
7.21720705762e-185
7.21720711227e-185
7.21721050162e-185
7.21740962642e-185
7.22933191509e-185
7.43628041924e-185
1.0752620043e-46
1.96391812396e-08
2.62330721548e-05
1.52520131829e-05
1.0195890024e-05
8.21625115476e-06
7.60039727429e-06
7.41901007359e-06
7.35232862122e-06
7.32094146887e-06
7.28820044862e-06
7.25793662797e-06
7.22590397509e-06
7.1917046768e-06
7.1551553799e-06
7.11609335573e-06
7.07458309971e-06
7.03044290117e-06
6.98345397351e-06
6.93357625057e-06
6.88117960004e-06
6.82592571242e-06
6.76795936501e-06
6.70787629202e-06
6.6456067175e-06
6.5845096409e-06
6.51879443626e-06
6.45191095188e-06
6.38469447963e-06
6.31743499845e-06
6.25075913251e-06
6.18549656664e-06
6.1222068575e-06
6.06132245736e-06
6.00362852845e-06
5.95312608376e-06
5.90375686563e-06
5.85927499436e-06
5.8205279067e-06
5.78757142853e-06
5.76083588385e-06
5.74057402923e-06
5.72694131347e-06
5.71813084975e-06
7.21720705535e-185
7.21720705536e-185
7.21720705536e-185
7.21720705537e-185
7.21720705537e-185
7.21720705538e-185
7.21720705538e-185
7.21720705539e-185
7.2172070554e-185
7.2172070554e-185
7.21720705541e-185
7.21720705541e-185
7.21720705542e-185
7.21720705542e-185
7.21720705543e-185
7.21720705543e-185
7.21720705544e-185
7.21720705544e-185
7.21720705545e-185
7.2172070555e-185
7.21720705827e-185
7.21720722598e-185
7.21721735925e-185
7.21779874774e-185
7.25165186292e-185
7.69328786233e-185
3.01356922955e-27
1.17701759625e-06
2.19996171938e-05
1.34809391161e-05
9.4977429997e-06
8.05587464588e-06
7.62249228023e-06
7.48387494983e-06
7.42922798639e-06
7.39473819741e-06
7.36131076532e-06
7.32292833257e-06
7.28622799019e-06
7.24724808409e-06
7.20606794784e-06
7.16237613127e-06
7.11611145796e-06
7.0673325727e-06
7.01602925551e-06
6.96198182467e-06
6.90532823948e-06
6.84948068502e-06
6.78808489545e-06
6.7244691561e-06
6.65887737741e-06
6.59193559661e-06
6.52386575748e-06
6.45491222759e-06
6.38576958946e-06
6.31708284845e-06
6.24919499027e-06
6.18318967845e-06
6.12241585465e-06
6.06117086525e-06
6.00351101152e-06
5.94998919095e-06
5.90093147695e-06
5.85687939169e-06
5.8184273534e-06
5.7859267137e-06
5.75954845918e-06
5.73959521693e-06
5.72617311252e-06
5.71760114065e-06
7.21720705454e-185
7.21720705454e-185
7.21720705455e-185
7.21720705455e-185
7.21720705456e-185
7.21720705456e-185
7.21720705457e-185
7.21720705457e-185
7.21720705458e-185
7.21720705458e-185
7.21720705458e-185
7.21720705459e-185
7.21720705459e-185
7.2172070546e-185
7.2172070546e-185
7.2172070546e-185
7.21720705461e-185
7.21720705461e-185
7.21720705462e-185
7.21720705472e-185
7.21720706081e-185
7.21720743979e-185
7.21723091549e-185
7.21865079902e-185
7.27972854783e-185
1.03884179198e-71
7.32611678899e-19
6.6693004546e-06
1.95046173687e-05
1.23289237611e-05
9.15536561716e-06
8.0457176164e-06
7.72824357972e-06
7.6157541973e-06
7.56147747133e-06
7.52004355098e-06
7.47942333793e-06
7.437788564e-06
7.39434324474e-06
7.34900436885e-06
7.30141199485e-06
7.25148858127e-06
7.19942238277e-06
7.1448821856e-06
7.08776727704e-06
7.02841686739e-06
6.9667068524e-06
6.9027025376e-06
6.83643839023e-06
6.76847114177e-06
6.6988730708e-06
6.62794766603e-06
6.55637226162e-06
6.4844345172e-06
6.41568004371e-06
6.34455167741e-06
6.27463259102e-06
6.20654819478e-06
6.14112157238e-06
6.07863670536e-06
6.01995218033e-06
5.96556530181e-06
5.91602323125e-06
5.87160023793e-06
5.83590719027e-06
5.80301017361e-06
5.7765117145e-06
5.75643309391e-06
5.74292327079e-06
5.73444769554e-06
7.21720705398e-185
7.21720705398e-185
7.21720705399e-185
7.21720705399e-185
7.21720705399e-185
7.217207054e-185
7.217207054e-185
7.217207054e-185
7.21720705401e-185
7.21720705401e-185
7.21720705402e-185
7.21720705402e-185
7.21720705402e-185
7.21720705403e-185
7.21720705403e-185
7.21720705403e-185
7.21720705404e-185
7.21720705404e-185
7.21720705405e-185
7.21720705432e-185
7.21720707097e-185
7.21720809624e-185
7.21726880603e-185
7.22089241162e-185
7.31357567027e-185
3.85754373376e-71
7.53600620929e-16
1.79303892692e-05
1.77221215909e-05
1.15716570153e-05
8.98036733351e-06
8.14658929988e-06
7.89291825025e-06
7.79501623513e-06
7.7359174669e-06
7.68612941334e-06
7.63682455257e-06
7.58688616462e-06
7.53550860865e-06
7.48229912399e-06
7.42757826714e-06
7.37076335545e-06
7.311798718e-06
7.2504981667e-06
7.18706939685e-06
7.12146253274e-06
7.05351928845e-06
6.98387018194e-06
6.91237735755e-06
6.83914907179e-06
6.76458060412e-06
6.69262948761e-06
6.61652890993e-06
6.54069811979e-06
6.46512041456e-06
6.39075940135e-06
6.31809033096e-06
6.24752871138e-06
6.17969461863e-06
6.11540939413e-06
6.05831755384e-06
6.00238751741e-06
5.95137658047e-06
5.90606762376e-06
5.86647633494e-06
5.83299754613e-06
5.80586108306e-06
5.78529500237e-06
5.77155351404e-06
5.76301862249e-06
7.21720705357e-185
7.21720705357e-185
7.21720705358e-185
7.21720705358e-185
7.21720705358e-185
7.21720705359e-185
7.21720705359e-185
7.21720705359e-185
7.21720705359e-185
7.2172070536e-185
7.2172070536e-185
7.2172070536e-185
7.21720705361e-185
7.21720705361e-185
7.21720705361e-185
7.21720705362e-185
7.21720705362e-185
7.21720705362e-185
7.21720705363e-185
7.21720705422e-185
7.21720709e-185
7.21720928668e-185
7.21733892718e-185
7.22521658115e-185
7.38076320888e-185
1.70822106454e-47
4.0246601142e-10
2.83101817826e-05
1.63461670855e-05
1.10608681638e-05
8.9695568804e-06
8.3007014011e-06
8.09808520765e-06
8.00979895514e-06
7.94518731974e-06
7.88699681531e-06
7.82853029305e-06
7.76935632978e-06
7.70904166618e-06
7.64716963849e-06
7.58401660814e-06
7.51905424694e-06
7.45214252382e-06
7.38356208488e-06
7.31305418596e-06
7.24045057339e-06
7.16596730175e-06
7.08982725315e-06
7.01542729486e-06
6.93648305164e-06
6.85634911284e-06
6.77585857005e-06
6.69525640884e-06
6.6147844363e-06
6.53521816233e-06
6.45701731239e-06
6.38406115888e-06
6.31043134421e-06
6.23993213497e-06
6.17297220542e-06
6.11046493371e-06
6.05275952858e-06
6.00028802261e-06
5.95343352133e-06
5.91255065829e-06
5.87824413367e-06
5.85367031414e-06
5.83249013426e-06
5.81831922529e-06
5.80958244076e-06
7.21720705326e-185
7.21720705326e-185
7.21720705326e-185
7.21720705327e-185
7.21720705327e-185
7.21720705327e-185
7.21720705328e-185
7.21720705328e-185
7.21720705328e-185
7.21720705328e-185
7.21720705329e-185
7.21720705329e-185
7.21720705329e-185
7.21720705329e-185
7.2172070533e-185
7.2172070533e-185
7.2172070533e-185
7.21720705331e-185
7.21720705333e-185
7.21720705461e-185
7.21720713331e-185
7.21721194278e-185
7.21749249396e-185
7.23425252098e-185
7.50021478105e-185
8.32710413188e-36
1.08488270068e-07
2.51550321193e-05
1.52839316399e-05
1.07464361786e-05
9.02007384931e-06
8.51126983898e-06
8.34457868236e-06
8.2574334978e-06
8.1852427998e-06
8.11795015948e-06
8.0497993226e-06
7.98100709385e-06
7.91115426978e-06
7.83998913286e-06
7.76750457394e-06
7.69374851297e-06
7.61824308765e-06
7.54142177624e-06
7.46275692758e-06
7.38614553788e-06
7.30432923268e-06
7.22103878384e-06
7.1366558301e-06
7.05116234048e-06
6.96530581084e-06
6.87913615908e-06
6.79299951698e-06
6.71108663283e-06
6.62670245778e-06
6.54435077985e-06
6.46436948013e-06
6.38705019278e-06
6.31341428562e-06
6.24382000394e-06
6.18203291836e-06
6.12201743092e-06
6.06746968813e-06
6.01890152439e-06
5.97677441735e-06
5.94122699297e-06
5.91254108674e-06
5.89077163773e-06
5.8760384775e-06
5.86697726633e-06
7.21720705301e-185
7.21720705302e-185
7.21720705302e-185
7.21720705302e-185
7.21720705302e-185
7.21720705303e-185
7.21720705303e-185
7.21720705303e-185
7.21720705303e-185
7.21720705304e-185
7.21720705304e-185
7.21720705304e-185
7.21720705304e-185
7.21720705305e-185
7.21720705305e-185
7.21720705305e-185
7.21720705305e-185
7.21720705306e-185
7.2172070531e-185
7.21720705566e-185
7.21720721072e-185
7.21721656811e-185
7.21775316526e-185
7.24897105213e-185
7.66698704383e-185
1.44671933766e-27
8.26942031374e-07
2.29192117441e-05
1.44618417418e-05
1.05843210959e-05
9.17699254e-06
8.77734419864e-06
8.629341188e-06
8.53507020337e-06
8.45619455084e-06
8.37821900227e-06
8.29965041537e-06
8.22001401889e-06
8.13977354015e-06
8.05835346887e-06
7.97603045183e-06
7.89267619848e-06
7.81145450099e-06
7.72546731396e-06
7.63809224883e-06
7.54955530308e-06
7.45971758875e-06
7.3690367689e-06
7.27745790232e-06
7.1850890027e-06
7.0961221716e-06
7.00361629492e-06
6.91195127127e-06
6.82121414284e-06
6.7319575423e-06
6.64491597036e-06
6.56404002136e-06
6.48276633238e-06
6.40558417829e-06
6.33281737708e-06
6.26480227508e-06
6.20231454805e-06
6.14570467079e-06
6.09537836466e-06
6.05153886199e-06
6.0179137631e-06
5.98805521874e-06
5.96552617067e-06
5.95024664264e-06
5.94093929637e-06
7.21720705282e-185
7.21720705282e-185
7.21720705282e-185
7.21720705282e-185
7.21720705283e-185
7.21720705283e-185
7.21720705283e-185
7.21720705283e-185
7.21720705284e-185
7.21720705284e-185
7.21720705284e-185
7.21720705284e-185
7.21720705285e-185
7.21720705285e-185
7.21720705285e-185
7.21720705285e-185
7.21720705285e-185
7.21720705286e-185
7.21720705294e-185
7.21720705755e-185
7.21720733209e-185
7.21722356365e-185
7.21813515846e-185
7.26919158809e-185
1.39461349482e-72
7.92004059776e-21
3.12254789592e-06
2.11726201859e-05
1.38214103721e-05
1.05329040744e-05
9.41024328604e-06
9.09089658713e-06
8.95746953645e-06
8.85214321176e-06
8.7594648933e-06
8.6680610209e-06
8.57708545687e-06
8.48563794907e-06
8.39381512287e-06
8.30495720489e-06
8.21165702912e-06
8.11765891676e-06
8.02292706405e-06
7.92704110481e-06
7.83039890015e-06
7.73295931532e-06
7.6345366316e-06
7.53915535743e-06
7.43947469026e-06
7.33987800167e-06
7.24019687655e-06
7.14137185418e-06
7.04346035064e-06
6.95029418767e-06
6.85584038218e-06
6.76380837505e-06
6.67480168254e-06
6.5896548527e-06
6.50860397333e-06
6.43577915574e-06
6.36480109888e-06
6.29944399761e-06
6.24039393074e-06
6.1879351636e-06
6.14245761201e-06
6.104040643e-06
6.07299632297e-06
6.04941552759e-06
6.03340718869e-06
6.02376392499e-06
7.21720705266e-185
7.21720705266e-185
7.21720705266e-185
7.21720705266e-185
7.21720705267e-185
7.21720705267e-185
7.21720705267e-185
7.21720705267e-185
7.21720705267e-185
7.21720705268e-185
7.21720705268e-185
7.21720705268e-185
7.21720705268e-185
7.21720705268e-185
7.21720705269e-185
7.21720705269e-185
7.21720705269e-185
7.21720705269e-185
7.21720705284e-185
7.217207062e-185
7.21720763363e-185
7.21724231381e-185
7.2193117295e-185
7.29179916936e-185
1.81082197206e-71
6.34183216725e-18
8.75560442863e-06
1.98050597381e-05
1.3362248047e-05
1.05720870916e-05
9.72383645705e-06
9.45195373951e-06
9.31353050851e-06
9.20036740844e-06
9.09307637928e-06
8.9873835067e-06
8.88217461488e-06
8.78109707794e-06
8.676417132e-06
8.57153183322e-06
8.46660673702e-06
8.36109629512e-06
8.25525888927e-06
8.14880734611e-06
8.04576485656e-06
7.93821973599e-06
7.83065292352e-06
7.72287884533e-06
7.61491223298e-06
7.50747703562e-06
7.4039900958e-06
7.29793944832e-06
7.19344841754e-06
7.0905850547e-06
6.99043802223e-06
6.89304597697e-06
6.80300529992e-06
6.71311932243e-06
6.62812427765e-06
6.54822113075e-06
6.47377055149e-06
6.40573941478e-06
6.34779014313e-06
6.2930522591e-06
6.24546868945e-06
6.20539869424e-06
6.17312566475e-06
6.14860603545e-06
6.13193359846e-06
6.12203117708e-06
7.21720705252e-185
7.21720705252e-185
7.21720705253e-185
7.21720705253e-185
7.21720705253e-185
7.21720705253e-185
7.21720705253e-185
7.21720705254e-185
7.21720705254e-185
7.21720705254e-185
7.21720705254e-185
7.21720705254e-185
7.21720705255e-185
7.21720705255e-185
7.21720705255e-185
7.21720705255e-185
7.21720705255e-185
7.21720705256e-185
7.2172070529e-185
7.21720707349e-185
7.21720832739e-185
7.21728161752e-185
7.22159497558e-185
7.32563220159e-185
4.48999956097e-71
2.2470030566e-15
1.88481671333e-05
1.86125542959e-05
1.2988313372e-05
1.07279963569e-05
1.0075519241e-05
9.85968307575e-06
9.71370065606e-06
9.58314924699e-06
9.45818352558e-06
9.3392539428e-06
9.21808668242e-06
9.09831230004e-06
8.97939971035e-06
8.86118297123e-06
8.74295871188e-06
8.62526040924e-06
8.51117831264e-06
8.39336224527e-06
8.27554444735e-06
8.15762699817e-06
8.04021790924e-06
7.92666030814e-06
7.80968132878e-06
7.69374647854e-06
7.57853737694e-06
7.4652587327e-06
7.35739106186e-06
7.24810032266e-06
7.14177595524e-06
7.03902379466e-06
6.93988471383e-06
6.84562460865e-06
6.7597299737e-06
6.67602308461e-06
6.59839232421e-06
6.5272759793e-06
6.46293416897e-06
6.40574950368e-06
6.35637847325e-06
6.3182470057e-06
6.28460117597e-06
6.25901870913e-06
6.2415742215e-06
6.23128387276e-06
7.21720705241e-185
7.21720705241e-185
7.21720705241e-185
7.21720705241e-185
7.21720705242e-185
7.21720705242e-185
7.21720705242e-185
7.21720705242e-185
7.21720705242e-185
7.21720705242e-185
7.21720705243e-185
7.21720705243e-185
7.21720705243e-185
7.21720705243e-185
7.21720705243e-185
7.21720705243e-185
7.21720705244e-185
7.21720705245e-185
7.21720705316e-185
7.21720709609e-185
7.2172096982e-185
7.2173615323e-185
7.22645489366e-185
7.4002906866e-185
3.68427019284e-47
9.35512002822e-10
2.85657799518e-05
1.75509702423e-05
1.2762766122e-05
1.09776388332e-05
1.04800261067e-05
1.0295786983e-05
1.01449478558e-05
9.99987265954e-06
9.85605555711e-06
9.71498121766e-06
9.57661101568e-06
9.44033248829e-06
9.30586279439e-06
9.17604052773e-06
9.04403118254e-06
8.91263811253e-06
8.78200494372e-06
8.65212842806e-06
8.52641658017e-06
8.39738079322e-06
8.26923027109e-06
8.14194023626e-06
8.0155564246e-06
7.89430204414e-06
7.77073018198e-06
7.64945499351e-06
7.53063009983e-06
7.41433358579e-06
7.30537017265e-06
7.19674288822e-06
7.09258300158e-06
6.9932368295e-06
6.89938415859e-06
6.81537385785e-06
6.73405862124e-06
6.65958816101e-06
6.59227983092e-06
6.53286134521e-06
6.48136910137e-06
6.43799202757e-06
6.4029199246e-06
6.37616702433e-06
6.36163880645e-06
6.34698275967e-06
7.21720705231e-185
7.21720705231e-185
7.21720705231e-185
7.21720705231e-185
7.21720705232e-185
7.21720705232e-185
7.21720705232e-185
7.21720705232e-185
7.21720705232e-185
7.21720705233e-185
7.21720705233e-185
7.21720705233e-185
7.21720705233e-185
7.21720705233e-185
7.21720705233e-185
7.21720705233e-185
7.21720705234e-185
7.21720705236e-185
7.21720705397e-185
7.21720715116e-185
7.21721301448e-185
7.21755117352e-185
7.23738448438e-185
7.54203443645e-185
1.57938495312e-35
1.52073305841e-07
2.57386186366e-05
1.66682720197e-05
1.26698225393e-05
1.12997031303e-05
1.09341447736e-05
1.07658226634e-05
1.06027835403e-05
1.04391989029e-05
1.02761471381e-05
1.01164865156e-05
9.95948937726e-06
9.8095600041e-06
9.65789811344e-06
9.50857939907e-06
9.36114282342e-06
9.21523657539e-06
9.07454897013e-06
8.93128798482e-06
8.78932350667e-06
8.64873766241e-06
8.51310802926e-06
8.3751955618e-06
8.23872444645e-06
8.10438776153e-06
7.97200786242e-06
7.8462957797e-06
7.71953564548e-06
7.59639449772e-06
7.47697516379e-06
7.36609150089e-06
7.25596852123e-06
7.1515619282e-06
7.05319848221e-06
6.96130211114e-06
6.88002392212e-06
6.80206264001e-06
6.73202824268e-06
6.67002902575e-06
6.61629358055e-06
6.57114245404e-06
6.5345386909e-06
6.50665962485e-06
6.48754606082e-06
6.47626709586e-06
7.21720705222e-185
7.21720705223e-185
7.21720705223e-185
7.21720705223e-185
7.21720705223e-185
7.21720705223e-185
7.21720705223e-185
7.21720705224e-185
7.21720705224e-185
7.21720705224e-185
7.21720705224e-185
7.21720705224e-185
7.21720705224e-185
7.21720705225e-185
7.21720705225e-185
7.21720705225e-185
7.21720705225e-185
7.21720705231e-185
7.2172070559e-185
7.21720726938e-185
7.21721989452e-185
7.21793016972e-185
7.25800671971e-185
7.77073853417e-185
3.19710515733e-24
1.23451550775e-06
2.3428940918e-05
1.59458263394e-05
1.27272899594e-05
1.17140986799e-05
1.14458623092e-05
1.12768673374e-05
1.10918636268e-05
1.09054697781e-05
1.07212540073e-05
1.05413663109e-05
1.03687234206e-05
1.01960574008e-05
1.00267664226e-05
9.86023495387e-06
9.70037478033e-06
9.53918754667e-06
9.37979279466e-06
9.22281968237e-06
9.07141368107e-06
8.91826169645e-06
8.76680809027e-06
8.61788289458e-06
8.4748882137e-06
8.33042229811e-06
8.1890398133e-06
8.05065030882e-06
7.91999530861e-06
7.78908456138e-06
7.66305043301e-06
7.54196477732e-06
7.42990558926e-06
7.32022537435e-06
7.21705497638e-06
7.1207097561e-06
7.03157970181e-06
6.95446547008e-06
6.88137836544e-06
6.81658856808e-06
6.76051664737e-06
6.71339106976e-06
6.67528017166e-06
6.64622689528e-06
6.62620450187e-06
6.61443453424e-06
7.21720705215e-185
7.21720705215e-185
7.21720705215e-185
7.21720705215e-185
7.21720705216e-185
7.21720705216e-185
7.21720705216e-185
7.21720705216e-185
7.21720705216e-185
7.21720705216e-185
7.21720705217e-185
7.21720705217e-185
7.21720705217e-185
7.21720705217e-185
7.21720705217e-185
7.21720705217e-185
7.21720705218e-185
7.2172070523e-185
7.21720705978e-185
7.21720751076e-185
7.21723471623e-185
7.21884196986e-185
7.28655420449e-185
1.12784870016e-71
6.00038021439e-19
5.32780760045e-06
2.17385002473e-05
1.54468083552e-05
1.29211581138e-05
1.22120405966e-05
1.20109131821e-05
1.18203795961e-05
1.16088495939e-05
1.13975492684e-05
1.11941943953e-05
1.09921999367e-05
1.07953622828e-05
1.06025987776e-05
1.04182871302e-05
1.02337806375e-05
1.00527490041e-05
9.87908174894e-06
9.70444118707e-06
9.53244393996e-06
9.36342429212e-06
9.20084261135e-06
9.03708557408e-06
8.87626568259e-06
8.72246921128e-06
8.56791791585e-06
8.41674324115e-06
8.26947701423e-06
8.13069123486e-06
7.9919833167e-06
7.8588493407e-06
7.73104746503e-06
7.61358214273e-06
7.4983990124e-06
7.39002265644e-06
7.2893327823e-06
7.19646751487e-06
7.1117257898e-06
7.03935293328e-06
6.9719672631e-06
6.91366359678e-06
6.86450864344e-06
6.82479071986e-06
6.79441867909e-06
6.77340214272e-06
6.76114423023e-06
7.21720705208e-185
7.21720705209e-185
7.21720705209e-185
7.21720705209e-185
7.21720705209e-185
7.21720705209e-185
7.21720705209e-185
7.21720705209e-185
7.2172070521e-185
7.2172070521e-185
7.2172070521e-185
7.2172070521e-185
7.2172070521e-185
7.2172070521e-185
7.2172070521e-185
7.21720705211e-185
7.21720705211e-185
7.21720705247e-185
7.21720707385e-185
7.21720835706e-185
7.21728256215e-185
7.22159015172e-185
7.32817537587e-185
4.24900229656e-71
9.3172078801e-16
1.55736965378e-05
2.02785831529e-05
1.51566323419e-05
1.32491751797e-05
1.27897491319e-05
1.26148360249e-05
1.23969876779e-05
1.21552028293e-05
1.19202505998e-05
1.16871468887e-05
1.14610162904e-05
1.12454614563e-05
1.10312538683e-05
1.08227401458e-05
1.06229320256e-05
1.04239687942e-05
1.0228845798e-05
1.00422075964e-05
9.85475434873e-06
9.6713344036e-06
9.4911325995e-06
9.31862243256e-06
9.14592894352e-06
8.97645447675e-06
8.81562232845e-06
8.65429035846e-06
8.49791774163e-06
8.34637441136e-06
8.20408887609e-06
8.0634909109e-06
7.92925275313e-06
7.80134997796e-06
7.68481385707e-06
7.57167342906e-06
7.46633699167e-06
7.3692103084e-06
7.28093213399e-06
7.20567675711e-06
7.13550912733e-06
7.07480996786e-06
7.02366700859e-06
6.98227620157e-06
6.95054240592e-06
6.92854041014e-06
6.91565673462e-06
7.21720705202e-185
7.21720705203e-185
7.21720705203e-185
7.21720705203e-185
7.21720705203e-185
7.21720705203e-185
7.21720705203e-185
7.21720705204e-185
7.21720705204e-185
7.21720705204e-185
7.21720705204e-185
7.21720705204e-185
7.21720705204e-185
7.21720705204e-185
7.21720705204e-185
7.21720705205e-185
7.21720705206e-185
7.217207053e-185
7.21720710872e-185
7.21721043621e-185
7.21740193084e-185
7.22861523846e-185
7.43259728994e-185
6.77669685222e-47
2.91580320144e-09
2.88180249232e-05
1.90652623649e-05
1.50181879672e-05
1.37042069655e-05
1.3432133138e-05
1.32536443909e-05
1.3003101509e-05
1.2730609271e-05
1.24609800529e-05
1.22003062997e-05
1.19523764591e-05
1.17085772515e-05
1.14761638807e-05
1.12462540254e-05
1.10223109135e-05
1.08083734718e-05
1.05955383931e-05
1.03874294782e-05
1.01885272904e-05
9.98967229806e-06
9.79551030027e-06
9.60997226064e-06
9.42444682673e-06
9.2435622949e-06
9.07186356624e-06
8.90043587836e-06
8.73459066703e-06
8.57419973583e-06
8.42425441524e-06
8.27611025586e-06
8.13485627688e-06
8.0010635114e-06
7.87907597259e-06
7.76044844951e-06
7.65064986609e-06
7.54964158253e-06
7.4621728847e-06
7.37922509347e-06
7.30634343735e-06
7.24326076924e-06
7.19002866767e-06
7.1469462373e-06
7.11382845874e-06
7.09073996504e-06
7.07718406672e-06
7.21720705197e-185
7.21720705197e-185
7.21720705198e-185
7.21720705198e-185
7.21720705198e-185
7.21720705198e-185
7.21720705198e-185
7.21720705198e-185
7.21720705198e-185
7.21720705198e-185
7.21720705199e-185
7.21720705199e-185
7.21720705199e-185
7.21720705199e-185
7.21720705199e-185
7.21720705199e-185
7.21720705204e-185
7.21720705473e-185
7.21720721425e-185
7.2172166426e-185
7.21774825145e-185
7.24784886528e-185
7.66554496445e-185
1.85609335541e-32
4.13910624956e-07
2.59239160113e-05
1.81533564145e-05
1.51140146312e-05
1.42735107379e-05
1.41131928223e-05
1.39109413849e-05
1.36231201743e-05
1.3318111279e-05
1.30189139029e-05
1.27339400711e-05
1.24551165446e-05
1.21903879818e-05
1.1929994836e-05
1.16823313109e-05
1.14372831266e-05
1.11994461407e-05
1.09722925905e-05
1.07465896363e-05
1.05272435234e-05
1.03171608912e-05
1.01081605283e-05
9.90922380017e-06
9.71084203951e-06
9.51820495789e-06
9.33543425387e-06
9.15375625422e-06
8.97836938985e-06
8.8093182553e-06
8.65111216004e-06
8.49570624921e-06
8.34782589918e-06
8.2120082768e-06
8.08002770509e-06
7.9564405989e-06
7.84189480638e-06
7.73672846737e-06
7.64562067431e-06
7.55978576754e-06
7.48405983708e-06
7.41847311077e-06
7.36325479199e-06
7.3182952217e-06
7.28370002266e-06
7.25944691881e-06
7.24505261341e-06
7.21720705193e-185
7.21720705193e-185
7.21720705193e-185
7.21720705193e-185
7.21720705193e-185
7.21720705193e-185
7.21720705193e-185
7.21720705193e-185
7.21720705194e-185
7.21720705194e-185
7.21720705194e-185
7.21720705194e-185
7.21720705194e-185
7.21720705194e-185
7.21720705194e-185
7.21720705195e-185
7.21720705207e-185
7.21720705936e-185
7.21720747853e-185
7.21723170913e-185
7.21861927362e-185
7.28471708552e-185
7.61728154827e-72
9.97739858136e-20
3.58208794201e-06
2.34569193032e-05
1.76093577989e-05
1.54251386836e-05
1.49672764772e-05
1.48465891551e-05
1.45922378529e-05
1.42607022209e-05
1.39209146051e-05
1.35946797913e-05
1.32764075726e-05
1.29743162796e-05
1.26791315812e-05
1.23987892651e-05
1.21233567383e-05
1.18613974197e-05
1.16032445468e-05
1.13568203084e-05
1.11134730946e-05
1.08768153256e-05
1.06513702882e-05
1.04276869742e-05
1.02149985335e-05
1.00035932225e-05
9.79878466635e-06
9.60476229325e-06
9.41291851216e-06
9.22772782918e-06
9.05437550311e-06
8.88376850016e-06
8.72103229955e-06
8.5662392362e-06
8.42431631656e-06
8.28671438344e-06
8.15829284694e-06
8.03935352385e-06
7.93465526394e-06
7.83535837889e-06
7.74624259744e-06
7.66740642116e-06
7.59943520364e-06
7.54211635608e-06
7.4954529978e-06
7.4641876453e-06
7.43878402957e-06
7.42367540581e-06
7.21720705188e-185
7.21720705188e-185
7.21720705189e-185
7.21720705189e-185
7.21720705189e-185
7.21720705189e-185
7.21720705189e-185
7.21720705189e-185
7.21720705189e-185
7.21720705189e-185
7.2172070519e-185
7.2172070519e-185
7.2172070519e-185
7.2172070519e-185
7.2172070519e-185
7.21720705191e-185
7.21720705236e-185
7.2172070789e-185
7.2172086445e-185
7.21729754538e-185
7.22234564653e-185
7.34170821044e-185
4.69959254382e-71
1.5874566121e-15
1.48577989881e-05
2.17092728102e-05
1.73259953321e-05
1.59377487748e-05
1.57495889286e-05
1.56074641599e-05
1.52942406891e-05
1.49178274343e-05
1.45404876984e-05
1.41811943143e-05
1.38324872269e-05
1.3502215011e-05
1.31801847352e-05
1.28746530802e-05
1.25756996908e-05
1.22919946953e-05
1.20124595922e-05
1.17469680239e-05
1.14848128364e-05
1.12315476498e-05
1.09899735749e-05
1.07515273188e-05
1.05250582817e-05
1.03008341718e-05
1.00837417677e-05
9.8789379956e-06
9.67643318981e-06
9.48182327123e-06
9.29972825215e-06
9.12094259687e-06
8.9507328073e-06
8.79404129283e-06
8.64132145348e-06
8.49807989619e-06
8.36465203552e-06
8.24612699145e-06
8.13279334825e-06
8.02968810797e-06
7.93752724508e-06
7.85616999446e-06
7.78576262854e-06
7.73109835322e-06
7.68262575183e-06
7.64516824325e-06
7.61854307636e-06
7.60258709161e-06
7.21720705184e-185
7.21720705185e-185
7.21720705185e-185
7.21720705185e-185
7.21720705185e-185
7.21720705185e-185
7.21720705185e-185
7.21720705185e-185
7.21720705185e-185
7.21720705185e-185
7.21720705186e-185
7.21720705186e-185
7.21720705186e-185
7.21720705186e-185
7.21720705186e-185
7.21720705189e-185
7.21720705343e-185
7.21720714449e-185
7.21721248861e-185
7.21751173751e-185
7.23434713316e-185
7.5111719396e-185
6.01556596078e-37
2.92653163004e-08
2.97407760938e-05
2.04701596529e-05
1.73662062581e-05
1.66570406656e-05
1.66022859119e-05
1.63921201261e-05
1.60047625296e-05
1.55793299198e-05
1.51679609895e-05
1.47698097858e-05
1.43939874155e-05
1.4029868736e-05
1.36850975261e-05
1.33542476519e-05
1.30315576549e-05
1.27249538554e-05
1.24248652367e-05
1.21350061156e-05
1.18594415507e-05
1.15888031806e-05
1.13311591344e-05
1.10774758005e-05
1.08369627757e-05
1.06000225079e-05
1.03712014802e-05
1.01551154146e-05
9.94263280643e-06
9.74374303553e-06
9.54787269052e-06
9.36115225658e-06
9.18863016009e-06
9.02039234852e-06
8.86179760567e-06
8.71329683292e-06