/*--------------------------------*- C++ -*----------------------------------*\
| =========                 |                                                 |
| \\      /  F ield         | foam-extend: Open Source CFD                    |
|  \\    /   O peration     | Version:     4.1                                |
|   \\  /    A nd           | Web:         http://www.foam-extend.org         |
|    \\/     M anipulation  |                                                 |
\*---------------------------------------------------------------------------*/
FoamFile
{
    version     2.0;
    format      ascii;
    class       volScalarField;
    location    "0.0004";
    object      NO;
}
// * * * * * * * * * * * * * * * * * * * * * * * * * * * * * * * * * * * * * //

dimensions      [0 0 0 0 0 0 0];

internalField   nonuniform List<scalar> 
8400
(
2.19526275611e-21
2.19526275611e-21
2.19526275612e-21
2.19526275612e-21
2.19526275613e-21
2.19526275613e-21
2.19526275614e-21
2.19526275614e-21
2.19526275615e-21
2.19526275615e-21
2.19526275616e-21
2.19526275616e-21
2.19526275617e-21
2.19526275617e-21
2.19526275617e-21
2.19526275618e-21
2.19526275618e-21
2.19526275619e-21
2.19526275619e-21
2.19526275619e-21
2.1952627562e-21
2.19526275625e-21
2.19526275924e-21
2.1952629403e-21
2.1952734499e-21
2.19589605127e-21
2.20956568029e-21
1.44203524865e-08
0.0222799601911
0.000579044056941
4.34551705861e-06
1.40218934589e-06
7.72516865152e-07
5.95353632938e-07
5.37070983726e-07
5.16028838461e-07
5.06745936539e-07
5.0063624669e-07
4.95310894791e-07
4.90289669333e-07
4.85751899446e-07
4.80836274348e-07
4.75877544905e-07
4.70871653119e-07
4.65733508985e-07
4.60446939739e-07
4.54960975766e-07
4.49310417852e-07
4.43808483116e-07
4.37740752757e-07
4.31453041958e-07
4.24946954193e-07
4.18316586261e-07
4.11515405943e-07
4.04598473935e-07
3.97634048323e-07
3.91036432591e-07
3.84145703047e-07
3.77376395338e-07
3.7079731223e-07
3.64527117502e-07
3.58626245601e-07
3.5314767517e-07
3.48161972814e-07
3.44122857641e-07
3.4036325053e-07
3.3730407876e-07
3.34974426227e-07
3.33404671673e-07
3.31697531949e-07
2.19526275487e-21
2.19526275487e-21
2.19526275487e-21
2.19526275488e-21
2.19526275488e-21
2.19526275488e-21
2.19526275488e-21
2.19526275488e-21
2.19526275489e-21
2.19526275489e-21
2.19526275489e-21
2.19526275489e-21
2.19526275489e-21
2.1952627549e-21
2.1952627549e-21
2.1952627549e-21
2.1952627549e-21
2.1952627549e-21
2.1952627549e-21
2.19526275491e-21
2.19526275491e-21
2.1952627552e-21
2.19526277251e-21
2.19526381686e-21
2.19532359784e-21
2.19881041384e-21
2.24603573143e-21
0.00200309304117
0.0025909603587
1.54685518105e-05
2.39000866497e-06
9.90692441263e-07
6.37052800345e-07
5.34929130733e-07
5.01304348386e-07
4.90368720206e-07
4.85503389083e-07
4.81233617154e-07
4.77439735488e-07
4.7347084622e-07
4.69344854174e-07
4.64990091456e-07
4.60434457472e-07
4.55629936649e-07
4.50648029617e-07
4.45406621316e-07
4.39922729478e-07
4.34212595708e-07
4.28265430432e-07
4.22097675671e-07
4.15743092326e-07
4.09534386457e-07
4.02844503258e-07
3.96068912156e-07
3.89209690827e-07
3.8234684503e-07
3.75539094138e-07
3.68823240115e-07
3.62322540806e-07
3.56069804405e-07
3.50117860294e-07
3.44537973163e-07
3.39434180473e-07
3.35128510817e-07
3.31062399538e-07
3.27632203453e-07
3.24846469459e-07
3.22720419213e-07
3.21294683149e-07
3.20112692475e-07
2.19526275438e-21
2.19526275438e-21
2.19526275438e-21
2.19526275438e-21
2.19526275438e-21
2.19526275438e-21
2.19526275438e-21
2.19526275439e-21
2.19526275439e-21
2.19526275439e-21
2.19526275439e-21
2.19526275439e-21
2.19526275439e-21
2.19526275439e-21
2.19526275439e-21
2.1952627544e-21
2.1952627544e-21
2.1952627544e-21
2.1952627544e-21
2.1952627544e-21
2.19526275442e-21
2.19526275592e-21
2.19526284808e-21
2.19526834315e-21
2.19559646629e-21
2.20524530625e-21
6.76360051407e-09
0.0268537276065
0.00108118456748
5.46064449981e-06
1.52183546692e-06
7.73940336672e-07
5.69168504912e-07
5.06933089795e-07
4.87021534376e-07
4.80180128758e-07
4.76140511248e-07
4.72837862986e-07
4.69450607283e-07
4.65831163381e-07
4.61984492244e-07
4.57871139612e-07
4.53521044021e-07
4.48901233792e-07
4.44015354351e-07
4.38831171084e-07
4.33433098727e-07
4.27752595216e-07
4.21812031682e-07
4.15691671402e-07
4.09369138666e-07
4.02871460105e-07
3.96226775226e-07
3.89854412949e-07
3.83109559275e-07
3.7639643553e-07
3.6975310341e-07
3.6328633506e-07
3.57031348444e-07
3.51029376399e-07
3.45347033053e-07
3.40085622506e-07
3.35261404565e-07
3.30916185207e-07
3.27150149911e-07
3.24237980967e-07
3.21637817002e-07
3.19675354618e-07
3.1835244883e-07
3.17305036309e-07
2.19526275412e-21
2.19526275412e-21
2.19526275412e-21
2.19526275412e-21
2.19526275412e-21
2.19526275413e-21
2.19526275413e-21
2.19526275413e-21
2.19526275413e-21
2.19526275413e-21
2.19526275413e-21
2.19526275413e-21
2.19526275413e-21
2.19526275413e-21
2.19526275413e-21
2.19526275413e-21
2.19526275413e-21
2.19526275413e-21
2.19526275414e-21
2.19526275414e-21
2.19526275425e-21
2.19526276094e-21
2.19526317604e-21
2.1952875636e-21
2.19674773038e-21
2.22209347907e-21
1.03493310554e-05
0.00448090371955
5.40900510392e-05
3.14886494303e-06
1.13694930728e-06
6.73597815656e-07
5.41177919479e-07
5.00001650867e-07
4.86546337463e-07
4.81566665557e-07
4.77468011164e-07
4.73870136065e-07
4.70155102879e-07
4.66229073788e-07
4.62086087848e-07
4.57699644718e-07
4.53086927782e-07
4.48220321193e-07
4.43095518119e-07
4.37689223577e-07
4.32070871994e-07
4.26187117495e-07
4.2005670783e-07
4.13768098451e-07
4.07299323233e-07
4.01001213853e-07
3.94272957459e-07
3.87492681807e-07
3.80734182111e-07
3.74025287778e-07
3.67426399462e-07
3.61014457393e-07
3.54853497132e-07
3.48967232977e-07
3.43422571477e-07
3.38607735419e-07
3.33929047261e-07
3.2972605388e-07
3.26098006763e-07
3.23012511817e-07
3.20524753522e-07
3.18644402817e-07
3.17377686779e-07
3.16405583061e-07
2.19526275397e-21
2.19526275397e-21
2.19526275397e-21
2.19526275397e-21
2.19526275397e-21
2.19526275397e-21
2.19526275397e-21
2.19526275397e-21
2.19526275397e-21
2.19526275397e-21
2.19526275397e-21
2.19526275398e-21
2.19526275398e-21
2.19526275398e-21
2.19526275398e-21
2.19526275398e-21
2.19526275398e-21
2.19526275398e-21
2.19526275398e-21
2.19526275399e-21
2.19526275432e-21
2.19526277487e-21
2.19526401592e-21
2.19533522072e-21
2.19948133694e-21
2.25357013115e-21
0.00454213742026
0.00234659700801
1.29290987346e-05
2.24134173002e-06
9.55264795456e-07
6.31896342139e-07
5.35947057889e-07
5.05060796772e-07
4.94841401855e-07
4.89950653219e-07
4.85867108746e-07
4.81364681655e-07
4.7713018544e-07
4.72664964506e-07
4.68011304105e-07
4.63107562466e-07
4.57973243283e-07
4.52600650793e-07
4.4699398585e-07
4.41147963456e-07
4.35059684562e-07
4.29109610715e-07
4.22623490055e-07
4.15955714847e-07
4.091341349e-07
4.02231719852e-07
3.95275258695e-07
3.8828101766e-07
3.81321777501e-07
3.7446451361e-07
3.67742910968e-07
3.61269448262e-07
3.55355105605e-07
3.49425133908e-07
3.4387974208e-07
3.38780182109e-07
3.34126514195e-07
3.29971983068e-07
3.26363386962e-07
3.23326980712e-07
3.20862837158e-07
3.19013424352e-07
3.17769365441e-07
3.16835471912e-07
2.19526275387e-21
2.19526275387e-21
2.19526275387e-21
2.19526275387e-21
2.19526275387e-21
2.19526275387e-21
2.19526275387e-21
2.19526275387e-21
2.19526275387e-21
2.19526275387e-21
2.19526275387e-21
2.19526275387e-21
2.19526275387e-21
2.19526275388e-21
2.19526275388e-21
2.19526275388e-21
2.19526275388e-21
2.19526275388e-21
2.19526275388e-21
2.19526275389e-21
2.19526275464e-21
2.19526280105e-21
2.19526567621e-21
2.19543957459e-21
2.20291999238e-21
2.54879178738e-09
0.0222575993143
0.00149929754016
7.16947610242e-06
1.77706592573e-06
8.64256375223e-07
6.1725534804e-07
5.43614565556e-07
5.19033608389e-07
5.09883916062e-07
5.04426713647e-07
4.9952872806e-07
4.94652787855e-07
4.89615488011e-07
4.84419445073e-07
4.79013221271e-07
4.7338958055e-07
4.67585663706e-07
4.61546514716e-07
4.55279924389e-07
4.48826469978e-07
4.42165277631e-07
4.35308994191e-07
4.28282856658e-07
4.21131793783e-07
4.13867450347e-07
4.06524490926e-07
3.99173565734e-07
3.91848015346e-07
3.84910237981e-07
3.77786149341e-07
3.70844040793e-07
3.64137516241e-07
3.57738955713e-07
3.51681888634e-07
3.46028425312e-07
3.40818293753e-07
3.36111667679e-07
3.31910513169e-07
3.2855486067e-07
3.25464537686e-07
3.2299254506e-07
3.21119946297e-07
3.19860448827e-07
3.18939519349e-07
2.1952627538e-21
2.1952627538e-21
2.1952627538e-21
2.1952627538e-21
2.1952627538e-21
2.1952627538e-21
2.1952627538e-21
2.1952627538e-21
2.1952627538e-21
2.1952627538e-21
2.1952627538e-21
2.1952627538e-21
2.19526275381e-21
2.19526275381e-21
2.19526275381e-21
2.19526275381e-21
2.19526275381e-21
2.19526275381e-21
2.19526275381e-21
2.19526275384e-21
2.19526275588e-21
2.19526288145e-21
2.1952703168e-21
2.19571411318e-21
2.20706537465e-21
9.80651232136e-09
0.0267771691399
0.000864551321698
4.96019771387e-06
1.50876524412e-06
8.12479832012e-07
6.20752081404e-07
5.60099323938e-07
5.39389289931e-07
5.30258778247e-07
5.23918901709e-07
5.17993020465e-07
5.12110693411e-07
5.06119674427e-07
4.99963237837e-07
4.93706487359e-07
4.87256811365e-07
4.80613898448e-07
4.73782375806e-07
4.66765949851e-07
4.59564536719e-07
4.52168844556e-07
4.44661596243e-07
4.37016605348e-07
4.29249928465e-07
4.21405523165e-07
4.13905415415e-07
4.06034428365e-07
3.98265548728e-07
3.9058670557e-07
3.8309565856e-07
3.75836945832e-07
3.68845876942e-07
3.62175914219e-07
3.55899477802e-07
3.50378506388e-07
3.44993970202e-07
3.40113938623e-07
3.35817133306e-07
3.32066726934e-07
3.28919274458e-07
3.26369294543e-07
3.24437665587e-07
3.23158447091e-07
3.22239861844e-07
2.19526275375e-21
2.19526275375e-21
2.19526275375e-21
2.19526275375e-21
2.19526275375e-21
2.19526275375e-21
2.19526275375e-21
2.19526275375e-21
2.19526275375e-21
2.19526275375e-21
2.19526275375e-21
2.19526275375e-21
2.19526275375e-21
2.19526275375e-21
2.19526275375e-21
2.19526275376e-21
2.19526275376e-21
2.19526275376e-21
2.19526275376e-21
2.19526275383e-21
2.19526275821e-21
2.19526302725e-21
2.1952789048e-21
2.19624371021e-21
2.21529408099e-21
1.5896002819e-06
0.007616375687
0.000214893105488
3.78776248775e-06
1.33889729355e-06
7.92432446498e-07
6.33338132955e-07
5.82805303368e-07
5.64739853237e-07
5.5530085587e-07
5.47958218067e-07
5.40894434388e-07
5.33847339128e-07
5.2672735488e-07
5.1949360229e-07
5.12180945577e-07
5.04717220733e-07
4.97090631375e-07
4.89347550357e-07
4.81460144924e-07
4.73405356022e-07
4.65210592692e-07
4.56900873765e-07
4.48853295056e-07
4.4038754639e-07
4.31877148985e-07
4.23406535725e-07
4.14999895633e-07
4.06680183604e-07
3.98524893383e-07
3.90575688906e-07
3.83228672724e-07
3.75868997333e-07
3.68878553338e-07
3.62296520726e-07
3.56199858676e-07
3.5060590226e-07
3.45547441223e-07
3.410672335e-07
3.37166413652e-07
3.33921441689e-07
3.31604072207e-07
3.29600952743e-07
3.28272653929e-07
3.27328917289e-07
2.19526275371e-21
2.19526275371e-21
2.19526275371e-21
2.19526275371e-21
2.19526275371e-21
2.19526275371e-21
2.19526275371e-21
2.19526275371e-21
2.19526275371e-21
2.19526275371e-21
2.19526275371e-21
2.19526275372e-21
2.19526275372e-21
2.19526275372e-21
2.19526275372e-21
2.19526275372e-21
2.19526275372e-21
2.19526275372e-21
2.19526275372e-21
2.19526275388e-21
2.19526276352e-21
2.19526335255e-21
2.19529771269e-21
2.19735037519e-21
2.22992375682e-21
0.000120424164448
0.0035158710076
3.30905665439e-05
3.07553935521e-06
1.23126011459e-06
7.84675907305e-07
6.54891217114e-07
6.11806712221e-07
5.94963034539e-07
5.84781535307e-07
5.76277586406e-07
5.67920882992e-07
5.59599155786e-07
5.5123155088e-07
5.42779849658e-07
5.34245054057e-07
5.25635210592e-07
5.16906226153e-07
5.08107074777e-07
4.99172279265e-07
4.90552937893e-07
4.8142258232e-07
4.72213163066e-07
4.629660873e-07
4.53681534981e-07
4.44445586436e-07
4.35263585782e-07
4.26168951114e-07
4.17604712146e-07
4.08854242529e-07
4.00394717039e-07
3.92253845695e-07
3.84451459924e-07
3.77083213936e-07
3.70171101863e-07
3.64084002453e-07
3.5820371862e-07
3.52909582689e-07
3.48215064112e-07
3.44167439591e-07
3.40766005022e-07
3.38037917248e-07
3.3596850777e-07
3.34567893799e-07
3.33586453756e-07
2.19526275368e-21
2.19526275368e-21
2.19526275368e-21
2.19526275368e-21
2.19526275368e-21
2.19526275368e-21
2.19526275368e-21
2.19526275368e-21
2.19526275368e-21
2.19526275368e-21
2.19526275368e-21
2.19526275368e-21
2.19526275369e-21
2.19526275369e-21
2.19526275369e-21
2.19526275369e-21
2.19526275369e-21
2.19526275369e-21
2.19526275369e-21
2.19526275401e-21
2.195262773e-21
2.19526391903e-21
2.19532963807e-21
2.19915300813e-21
2.25034897263e-21
0.00299801486701
0.00251870091709
1.58202116045e-05
2.60481373454e-06
1.16460502066e-06
7.94801421419e-07
6.85161979525e-07
6.4685576933e-07
6.29902482528e-07
6.1895162031e-07
6.08992644089e-07
5.99189986714e-07
5.89374426541e-07
5.79583704421e-07
5.69739527421e-07
5.59875367062e-07
5.49973651747e-07
5.40415841042e-07
5.30383652355e-07
5.20287475104e-07
5.10154344284e-07
4.9996774483e-07
4.89782494639e-07
4.79592505318e-07
4.69410544785e-07
4.59705932844e-07
4.49705117811e-07
4.39893350125e-07
4.30272974905e-07
4.20898704309e-07
4.11839976558e-07
4.03505396473e-07
3.95198009514e-07
3.87377929613e-07
3.80065872357e-07
3.73290862617e-07
3.67109729561e-07
3.6154066481e-07
3.56624703608e-07
3.52363711442e-07
3.4911851617e-07
3.46237167553e-07
3.44083992704e-07
3.42624939303e-07
3.4161049505e-07
2.19526275366e-21
2.19526275366e-21
2.19526275366e-21
2.19526275366e-21
2.19526275366e-21
2.19526275366e-21
2.19526275366e-21
2.19526275366e-21
2.19526275366e-21
2.19526275366e-21
2.19526275366e-21
2.19526275366e-21
2.19526275366e-21
2.19526275366e-21
2.19526275366e-21
2.19526275366e-21
2.19526275366e-21
2.19526275366e-21
2.19526275367e-21
2.19526275424e-21
2.19526278786e-21
2.1952647758e-21
2.19537642219e-21
2.20162949195e-21
3.38416704359e-10
0.0155848881967
0.00189521146247
9.95802204204e-06
2.27433929775e-06
1.12475856177e-06
8.17692382416e-07
7.23283379217e-07
6.88928548726e-07
6.71105726982e-07
6.5832355314e-07
6.46456042997e-07
6.34868399492e-07
6.23350880111e-07
6.11897268335e-07
6.00926290663e-07
5.89509715573e-07
5.78119465764e-07
5.66749575474e-07
5.5535120827e-07
5.43973522579e-07
5.3261254485e-07
5.21244862337e-07
5.10345259028e-07
4.99053468249e-07
4.87886881899e-07
4.76826061848e-07
4.65973999218e-07
4.55325813802e-07
4.45300784123e-07
4.35228889772e-07
4.25512730161e-07
4.16204018213e-07
4.07380358954e-07
3.99052949532e-07
3.916401233e-07
3.84466260261e-07
3.77921025433e-07
3.72043887361e-07
3.66846216219e-07
3.62378556008e-07
3.58611316414e-07
3.5559324961e-07
3.5330430971e-07
3.51753597572e-07
3.50701427344e-07
2.19526275364e-21
2.19526275364e-21
2.19526275364e-21
2.19526275364e-21
2.19526275364e-21
2.19526275364e-21
2.19526275364e-21
2.19526275364e-21
2.19526275364e-21
2.19526275364e-21
2.19526275364e-21
2.19526275364e-21
2.19526275364e-21
2.19526275364e-21
2.19526275364e-21
2.19526275364e-21
2.19526275364e-21
2.19526275364e-21
2.19526275366e-21
2.19526275478e-21
2.19526282479e-21
2.1952670722e-21
2.1955205212e-21
2.20439832604e-21
4.49724781293e-09
0.0250993651476
0.00135852749707
7.20036737116e-06
2.04401696516e-06
1.10478318845e-06
8.53941398373e-07
7.69665472042e-07
7.36375856478e-07
7.17872564734e-07
7.02989379013e-07
6.88979746921e-07
6.7525190983e-07
6.62214869543e-07
6.48844504221e-07
6.3558635131e-07
6.22457546174e-07
6.09385878382e-07
5.96404162103e-07
5.83474331367e-07
5.71093396548e-07
5.58290254994e-07
5.45624400537e-07
5.33066882015e-07
5.20612988167e-07
5.08343807306e-07
4.96656073591e-07
4.8479127878e-07
4.73222753876e-07
4.6195556318e-07
4.51103490699e-07
4.40652677901e-07
4.31092586427e-07
4.21628050772e-07
4.12763100869e-07
4.0450135746e-07
3.96864842686e-07
3.89947469357e-07
3.84106349117e-07
3.78607802291e-07
3.73864087589e-07
3.69883988466e-07
3.66699794961e-07
3.64285722148e-07
3.62651358102e-07
3.61572267146e-07
2.19526275362e-21
2.19526275362e-21
2.19526275362e-21
2.19526275362e-21
2.19526275362e-21
2.19526275362e-21
2.19526275362e-21
2.19526275362e-21
2.19526275362e-21
2.19526275362e-21
2.19526275362e-21
2.19526275362e-21
2.19526275362e-21
2.19526275362e-21
2.19526275362e-21
2.19526275362e-21
2.19526275363e-21
2.19526275363e-21
2.19526275367e-21
2.19526275619e-21
2.19526290976e-21
2.19527188587e-21
2.19580015879e-21
2.20854198263e-21
1.15434044744e-08
0.0259550306252
0.000833819483068
5.53816616923e-06
1.86316750524e-06
1.10801079324e-06
8.97381344787e-07
8.24679085634e-07
7.91840722504e-07
7.71114420169e-07
7.53539704676e-07
7.37372670733e-07
7.21136202381e-07
7.05268002761e-07
6.89682003257e-07
6.74351894397e-07
6.59182166794e-07
6.44251081681e-07
6.29938399193e-07
6.15296675484e-07
6.00809363871e-07
5.86461040671e-07
5.72338695682e-07
5.58833138073e-07
5.45057252806e-07
5.31551513158e-07
5.18272659166e-07
5.05365807998e-07
4.93211708164e-07
4.81015947119e-07
4.69277249025e-07
4.5805084304e-07
4.47323744178e-07
4.37228932013e-07
4.28128204535e-07
4.19331167843e-07
4.11244520197e-07
4.03896625393e-07
3.97295581905e-07
3.9146143294e-07
3.86463340589e-07
3.82622582668e-07
3.79253312695e-07
3.76699337404e-07
3.74965441129e-07
3.73837141088e-07
2.19526275361e-21
2.19526275361e-21
2.19526275361e-21
2.19526275361e-21
2.19526275361e-21
2.19526275361e-21
2.19526275361e-21
2.19526275361e-21
2.19526275361e-21
2.19526275361e-21
2.19526275361e-21
2.19526275361e-21
2.19526275361e-21
2.19526275361e-21
2.19526275361e-21
2.19526275361e-21
2.19526275361e-21
2.19526275361e-21
2.1952627537e-21
2.19526275896e-21
2.19526307765e-21
2.19528167333e-21
2.19639537093e-21
2.21768568341e-21
3.45957365121e-06
0.0067978545705
0.000243380653535
4.431195744e-06
1.73837057701e-06
1.12910897587e-06
9.50748980463e-07
8.86304576031e-07
8.54092615823e-07
8.31249156828e-07
8.10598289044e-07
7.90857312075e-07
7.7177692298e-07
7.53213460674e-07
7.35094285031e-07
7.17804496335e-07
7.00426915149e-07
6.83316507411e-07
6.66486391967e-07
6.49947908972e-07
6.34128119826e-07
6.18055323088e-07
6.02271492156e-07
5.86785425486e-07
5.71572179161e-07
5.57147555551e-07
5.42612480456e-07
5.28511107561e-07
5.14842618748e-07
5.01603738008e-07
4.89356177521e-07
4.77264819423e-07
4.6579213582e-07
4.54958359114e-07
4.4481820913e-07
4.35835849379e-07
4.27207951304e-07
4.19373110196e-07
4.1234094021e-07
4.06183675596e-07
4.00882664365e-07
3.96440114519e-07
3.92874497644e-07
3.90164917798e-07
3.88712221245e-07
3.87105897452e-07
2.1952627536e-21
2.1952627536e-21
2.1952627536e-21
2.1952627536e-21
2.1952627536e-21
2.1952627536e-21
2.1952627536e-21
2.1952627536e-21
2.1952627536e-21
2.1952627536e-21
2.1952627536e-21
2.1952627536e-21
2.1952627536e-21
2.1952627536e-21
2.1952627536e-21
2.1952627536e-21
2.1952627536e-21
2.1952627536e-21
2.1952627538e-21
2.1952627657e-21
2.1952634838e-21
2.19530489939e-21
2.19773395833e-21
2.23504556468e-21
0.000219900026064
0.00335376736055
3.58478820478e-05
3.67611696177e-06
1.65587374601e-06
1.16407850727e-06
1.01428034612e-06
9.55920669545e-07
9.23030485609e-07
8.97226617933e-07
8.73167453477e-07
8.50148123043e-07
8.27804548044e-07
8.06759647472e-07
7.85718869343e-07
7.65247605489e-07
7.45294592789e-07
7.25762061179e-07
7.07173951119e-07
6.88449946355e-07
6.7010127183e-07
6.52164282221e-07
6.35063501084e-07
6.17866656564e-07
6.01064887279e-07
5.84711934579e-07
5.6879249259e-07
5.53867618031e-07
5.38966513623e-07
5.2466590521e-07
5.10955427139e-07
4.98374097275e-07
4.85997555264e-07
4.74385518596e-07
4.63556082793e-07
4.53532537921e-07
4.44756673217e-07
4.36403479955e-07
4.28962382511e-07
4.22418061797e-07
4.1677980711e-07
4.12080953699e-07
4.08285322669e-07
4.05412740712e-07
4.03461146526e-07
4.0220183862e-07
2.19526275358e-21
2.19526275358e-21
2.19526275359e-21
2.19526275359e-21
2.19526275359e-21
2.19526275359e-21
2.19526275359e-21
2.19526275359e-21
2.19526275359e-21
2.19526275359e-21
2.19526275359e-21
2.19526275359e-21
2.19526275359e-21
2.19526275359e-21
2.19526275359e-21
2.19526275359e-21
2.19526275359e-21
2.1952627536e-21
2.19526275404e-21
2.19526278018e-21
2.19526432643e-21
2.19535131646e-21
2.20025963976e-21
2.26305580137e-21
0.00697368646507
0.00234719479464
1.62208127731e-05
3.13764827517e-06
1.61386967498e-06
1.21686360236e-06
1.09011469756e-06
1.03531918332e-06
9.99849912853e-07
9.70112212093e-07
9.42110661325e-07
9.15309633118e-07
8.89960065009e-07
8.64922914268e-07
8.4071080858e-07
8.17175007975e-07
7.94905597252e-07
7.72701369828e-07
7.51033076484e-07
7.29945442032e-07
7.09887114396e-07
6.89824292256e-07
6.7023453936e-07
6.51204587616e-07
6.33174267739e-07
6.151734564e-07
5.97763440437e-07
5.80943505014e-07
5.6525932994e-07
5.49714798778e-07
5.34934103356e-07
5.20885597419e-07
5.0803745183e-07
4.95592725536e-07
4.84008540545e-07
4.73293093686e-07
4.63467209303e-07
4.55049047161e-07
4.4712462412e-07
4.40161782397e-07
4.34169854696e-07
4.29164612798e-07
4.25143100382e-07
4.22099169052e-07
4.20013414464e-07
4.1868340806e-07
2.19526275358e-21
2.19526275358e-21
2.19526275358e-21
2.19526275358e-21
2.19526275358e-21
2.19526275358e-21
2.19526275358e-21
2.19526275358e-21
2.19526275358e-21
2.19526275358e-21
2.19526275358e-21
2.19526275358e-21
2.19526275358e-21
2.19526275358e-21
2.19526275358e-21
2.19526275358e-21
2.19526275358e-21
2.19526275359e-21
2.19526275451e-21
2.19526280974e-21
2.1952661417e-21
2.19546298799e-21
2.2037559558e-21
2.78328109021e-09
0.0221136134392
0.00164421730361
1.00693084118e-05
2.77260509864e-06
1.6054343222e-06
1.28682792353e-06
1.17875176495e-06
1.12397175394e-06
1.08467435132e-06
1.05025746417e-06
1.01834417495e-06
9.87205421937e-07
9.57322087659e-07
9.28441487611e-07
9.01233703328e-07
8.74350639143e-07
8.48313335334e-07
8.2369578682e-07
7.9924883299e-07
7.75483096116e-07
7.52448349806e-07
7.30577481204e-07
7.08839501939e-07
6.87755491245e-07
6.67874104478e-07
6.48131601998e-07
6.29075280005e-07
6.10733509148e-07
5.93684897559e-07
5.76823698412e-07
5.60862389707e-07
5.45705433977e-07
5.31940720946e-07
5.18585635029e-07
5.06152690913e-07
4.94716393191e-07
4.84269838551e-07
4.74819614197e-07
4.66825613831e-07
4.5942998053e-07
4.53080006919e-07
4.47748882354e-07
4.43485753336e-07
4.40238984063e-07
4.38007161282e-07
4.36618675242e-07
2.19526275357e-21
2.19526275357e-21
2.19526275357e-21
2.19526275357e-21
2.19526275357e-21
2.19526275357e-21
2.19526275357e-21
2.19526275357e-21
2.19526275357e-21
2.19526275357e-21
2.19526275357e-21
2.19526275357e-21
2.19526275357e-21
2.19526275357e-21
2.19526275357e-21
2.19526275357e-21
2.19526275357e-21
2.19526275361e-21
2.19526275623e-21
2.19526291339e-21
2.19527200157e-21
2.19579956799e-21
2.20885345459e-21
1.09384029749e-08
0.0267108015022
0.00100636352247
7.0498192847e-06
2.52772650769e-06
1.62844353072e-06
1.37473229084e-06
1.2789604208e-06
1.2227854114e-06
1.1784027785e-06
1.13908426273e-06
1.10119658839e-06
1.0650911351e-06
1.03122523102e-06
9.98046419166e-07
9.66213306528e-07
9.36156088974e-07
9.06657313438e-07
8.78122986977e-07
8.51211082327e-07
8.24556450506e-07
7.98840961196e-07
7.73905899997e-07
7.50389080755e-07
7.27149955778e-07
7.04633773296e-07
6.83590676417e-07
6.6273074056e-07
6.427874176e-07
6.23700473448e-07
6.06024527863e-07
5.88747201539e-07
5.72469861281e-07
5.57127575968e-07
5.4332055088e-07
5.30051354721e-07
5.17822544418e-07
5.06655584741e-07
4.96597791673e-07
4.88109047148e-07
4.80243436079e-07
4.73495171127e-07
4.6783642329e-07
4.632999354e-07
4.59836918085e-07
4.57461159597e-07
4.55986560347e-07
2.19526275356e-21
2.19526275356e-21
2.19526275356e-21
2.19526275356e-21
2.19526275356e-21
2.19526275356e-21
2.19526275356e-21
2.19526275356e-21
2.19526275356e-21
2.19526275356e-21
2.19526275356e-21
2.19526275356e-21
2.19526275356e-21
2.19526275356e-21
2.19526275356e-21
2.19526275356e-21
2.19526275357e-21
2.19526275368e-21
2.1952627605e-21
2.19526316803e-21
2.19528662109e-21
2.19665995635e-21
2.2216423926e-21
6.52071384147e-06
0.00584932123196
0.000285066180925
5.34061116985e-06
2.35761917833e-06
1.68085115047e-06
1.479494119e-06
1.3913108207e-06
1.33207439613e-06
1.28180752629e-06
1.23520879315e-06
1.19125691474e-06
1.15022728293e-06
1.1104986298e-06
1.07325315043e-06
1.03695502926e-06
1.00212693602e-06
9.69375745371e-07
9.37265917482e-07
9.063428047e-07
8.77238445302e-07
8.48523032104e-07
8.20885486535e-07
7.94877877264e-07
7.69222786998e-07
7.44552692619e-07
7.21474028919e-07
6.98745275568e-07
6.77046577337e-07
6.56342835962e-07
6.3725353261e-07
6.18618202867e-07
6.01069376009e-07
5.8465410299e-07
5.69868350091e-07
5.55620949091e-07
5.42585982216e-07
5.30707648447e-07
5.20527023414e-07
5.10941133863e-07
5.0260306072e-07
4.95436743325e-07
4.89419593678e-07
4.84599653948e-07
4.80910195881e-07
4.78361744804e-07
4.76793270292e-07
2.19526275355e-21
2.19526275355e-21
2.19526275355e-21
2.19526275355e-21
2.19526275355e-21
2.19526275355e-21
2.19526275355e-21
2.19526275356e-21
2.19526275356e-21
2.19526275356e-21
2.19526275356e-21
2.19526275356e-21
2.19526275356e-21
2.19526275356e-21
2.19526275356e-21
2.19526275356e-21
2.19526275356e-21
2.19526275389e-21
2.19526277343e-21
2.19526392815e-21
2.19532903626e-21
2.19901556976e-21
2.25017235584e-21
0.00147719177213
0.00287825598719
3.13264377318e-05
4.31139234276e-06
2.27237358652e-06
1.76090798181e-06
1.59796442957e-06
1.513969795e-06
1.44981996765e-06
1.39259273007e-06
1.33900677842e-06
1.28915198999e-06
1.24124312223e-06
1.19653982284e-06
1.15327218176e-06
1.11282123276e-06
1.0734256192e-06
1.03579486923e-06
1.00045463296e-06
9.65840788679e-07
9.32722408075e-07
9.01513741583e-07
8.70892948428e-07
8.42222554292e-07
8.14021271055e-07
7.87026609478e-07
7.61788940313e-07
7.37059718501e-07
7.13523778381e-07
6.91129922218e-07
6.70487863997e-07
6.50442734045e-07
6.316218361e-07
6.14548591297e-07
5.98160574701e-07
5.82982126355e-07
5.690598463e-07
5.56401251492e-07
5.45559989623e-07
5.35419326003e-07
5.26551791009e-07
5.18926067237e-07
5.1255641904e-07
5.07408151554e-07
5.03478608112e-07
5.00746571031e-07
4.99053203061e-07
2.19526275355e-21
2.19526275355e-21
2.19526275355e-21
2.19526275355e-21
2.19526275355e-21
2.19526275355e-21
2.19526275355e-21
2.19526275355e-21
2.19526275355e-21
2.19526275355e-21
2.19526275355e-21
2.19526275355e-21
2.19526275355e-21
2.19526275355e-21
2.19526275355e-21
2.19526275355e-21
2.19526275357e-21
2.19526275446e-21
2.1952628058e-21
2.19526577341e-21
2.19543571356e-21
2.20353095704e-21
1.87540720816e-09
0.0196936083437
0.0018611808257
1.37271784474e-05
3.69678980011e-06
2.25451228243e-06
1.87290016451e-06
1.73497306936e-06
1.64897081824e-06
1.57737267248e-06
1.51192097595e-06
1.45128378358e-06
1.39338441134e-06
1.33949478695e-06
1.28774655501e-06
1.23952515011e-06
1.19291934651e-06
1.14938684291e-06
1.1071687099e-06
1.06755312628e-06
1.02904782604e-06
9.92205172535e-07
9.57689141706e-07
9.23952074293e-07
8.92398611579e-07
8.61477180247e-07
8.31975255926e-07
8.04456984913e-07
7.77637269868e-07
7.52120707838e-07
7.28580639041e-07
7.0570956938e-07
6.84203941749e-07
6.63988633167e-07
6.45730869983e-07
6.28208883475e-07
6.12048538152e-07
5.97247296345e-07
5.84365597792e-07
5.72247269241e-07
5.61473571517e-07
5.52020940288e-07
5.43942156021e-07
5.37185527547e-07
5.31712069656e-07
5.28108895342e-07
5.25191927844e-07
5.23398401684e-07
2.19526275354e-21
2.19526275354e-21
2.19526275354e-21
2.19526275354e-21
2.19526275354e-21
2.19526275354e-21
2.19526275354e-21
2.19526275354e-21
2.19526275354e-21
2.19526275354e-21
2.19526275354e-21
2.19526275354e-21
2.19526275354e-21
2.19526275354e-21
2.19526275355e-21
2.19526275355e-21
2.1952627536e-21
2.19526275685e-21
2.1952629486e-21
2.19527383662e-21
2.19589209623e-21
2.21051087089e-21
1.22437002705e-08
0.0263409997892
0.00106133638787
8.49326179027e-06
3.30342947825e-06
2.29586937713e-06
2.01206307048e-06
1.88754326654e-06
1.79669068956e-06
1.71589421033e-06
1.64075561011e-06
1.5713111937e-06
1.50533951003e-06
1.4441319232e-06
1.38553942623e-06
1.33102249757e-06
1.27864130504e-06
1.22985212516e-06
1.18258625894e-06
1.13850650548e-06
1.09569268592e-06
1.055013949e-06
1.01689815831e-06
9.79837704565e-07
9.45227888225e-07
9.11494309516e-07
8.793310111e-07
8.49479595301e-07
8.20393329549e-07
7.9285827538e-07
7.67486335373e-07
7.42893042475e-07
7.19811440543e-07
6.98855310698e-07
6.7867381436e-07
6.59979753087e-07
6.42776982771e-07
6.27680361358e-07
6.13371668271e-07
6.00486372321e-07
5.8907770493e-07
5.79094761726e-07
5.70520165399e-07
5.63938907533e-07
5.58136570458e-07
5.53690478588e-07
5.5056049735e-07
5.48648411053e-07
2.19526275354e-21
2.19526275354e-21
2.19526275354e-21
2.19526275354e-21
2.19526275354e-21
2.19526275354e-21
2.19526275354e-21
2.19526275354e-21
2.19526275354e-21
2.19526275354e-21
2.19526275354e-21
2.19526275354e-21
2.19526275354e-21
2.19526275354e-21
2.19526275354e-21
2.19526275354e-21
2.19526275373e-21
2.19526276488e-21
2.1952634194e-21
2.19530006952e-21
2.19736196269e-21
2.23126572055e-21
2.42023805208e-05
0.00429668510734
0.000196474107872
6.15366306872e-06
3.09050240895e-06
2.39807262056e-06
2.17841971483e-06
2.0571004541e-06
1.95547686905e-06
1.86293183858e-06
1.77799847385e-06
1.69788383688e-06
1.62396093968e-06
1.55380215899e-06
1.48876197505e-06
1.42756216485e-06
1.36897256253e-06
1.31439702104e-06
1.26192729163e-06
1.21216864714e-06
1.16575852149e-06
1.12091960432e-06
1.07899890107e-06
1.03838118183e-06
1.00054368423e-06
9.63844121866e-07
9.28982111394e-07
8.96616000632e-07
8.65234926499e-07
8.36342483705e-07
8.08285827238e-07
7.81929977709e-07
7.57943861108e-07
7.34840200574e-07
7.13337043538e-07
6.93471469432e-07
6.75869122789e-07
6.59130986269e-07
6.43986314181e-07
6.3038211964e-07
6.18302112949e-07
6.08364436905e-07
5.99287510146e-07
5.91671402503e-07
5.8552623354e-07
5.80784661098e-07
5.77461615594e-07
5.75402625821e-07
2.19526275353e-21
2.19526275353e-21
2.19526275353e-21
2.19526275353e-21
2.19526275353e-21
2.19526275353e-21
2.19526275353e-21
2.19526275353e-21
2.19526275354e-21
2.19526275354e-21
2.19526275354e-21
2.19526275354e-21
2.19526275354e-21
2.19526275354e-21
2.19526275354e-21
2.19526275355e-21
2.19526275424e-21
2.19526279421e-21
2.19526507252e-21
2.19538882125e-21
2.20199055803e-21
2.2826795325e-21