/*--------------------------------*- C++ -*----------------------------------*\
| =========                 |                                                 |
| \\      /  F ield         | foam-extend: Open Source CFD                    |
|  \\    /   O peration     | Version:     4.1                                |
|   \\  /    A nd           | Web:         http://www.foam-extend.org         |
|    \\/     M anipulation  |                                                 |
\*---------------------------------------------------------------------------*/
FoamFile
{
    version     2.0;
    format      ascii;
    class       volScalarField;
    location    "0.0004";
    object      NOPlus;
}
// * * * * * * * * * * * * * * * * * * * * * * * * * * * * * * * * * * * * * //

dimensions      [0 0 0 0 0 0 0];

internalField   nonuniform List<scalar> 
8400
(
1.21417155685e-66
1.21417155686e-66
1.21417155686e-66
1.21417155687e-66
1.21417155687e-66
1.21417155688e-66
1.21417155688e-66
1.21417155689e-66
1.21417155689e-66
1.21417155689e-66
1.2141715569e-66
1.2141715569e-66
1.21417155691e-66
1.21417155691e-66
1.21417155692e-66
1.21417155692e-66
1.21417155692e-66
1.21417155693e-66
1.21417155693e-66
1.21417155693e-66
1.21417155694e-66
1.21417155699e-66
1.21417155976e-66
1.21417172741e-66
1.21418145913e-66
1.21475797795e-66
1.22741583372e-66
2.08707808146e-26
6.14985437634e-07
0.000429169812502
2.36262477177e-05
1.10561201039e-05
7.26420824738e-06
6.014617302e-06
5.57939792683e-06
5.42263957859e-06
5.35634265257e-06
5.31416549799e-06
5.2778970607e-06
5.24361421976e-06
5.21263359219e-06
5.17879761145e-06
5.14460326054e-06
5.10987275268e-06
5.07411431761e-06
5.03710357144e-06
4.99856621587e-06
4.9585977806e-06
4.9195838472e-06
4.87619793386e-06
4.8310419086e-06
4.78409228949e-06
4.73587444468e-06
4.6861362654e-06
4.63525074851e-06
4.58370025923e-06
4.53449137025e-06
4.48284398904e-06
4.4318164604e-06
4.38192132086e-06
4.33402205491e-06
4.28863091649e-06
4.24627187273e-06
4.20751382148e-06
4.17591447982e-06
4.14641060513e-06
4.12226566119e-06
4.10383084746e-06
4.091402001e-06
4.077264823e-06
1.21417155571e-66
1.21417155571e-66
1.21417155571e-66
1.21417155571e-66
1.21417155572e-66
1.21417155572e-66
1.21417155572e-66
1.21417155572e-66
1.21417155572e-66
1.21417155572e-66
1.21417155573e-66
1.21417155573e-66
1.21417155573e-66
1.21417155573e-66
1.21417155573e-66
1.21417155573e-66
1.21417155574e-66
1.21417155574e-66
1.21417155574e-66
1.21417155574e-66
1.21417155575e-66
1.21417155601e-66
1.21417157205e-66
1.2141725391e-66
1.21422789531e-66
1.21745663063e-66
1.26118651224e-66
7.61827629071e-14
0.000222252041253
5.25066142904e-05
1.59375887705e-05
8.69303027845e-06
6.34466054576e-06
5.58479440308e-06
5.32642447409e-06
5.24321443823e-06
5.20761047465e-06
5.17745541244e-06
5.15073248528e-06
5.12287444102e-06
5.09375393826e-06
5.06305871084e-06
5.03076301731e-06
4.99671173384e-06
4.96117791543e-06
4.92374910777e-06
4.88439184466e-06
4.84324114676e-06
4.80025127711e-06
4.75545729799e-06
4.70911811949e-06
4.66365969827e-06
4.61440214816e-06
4.56413594391e-06
4.5129576093e-06
4.46144325718e-06
4.41002372496e-06
4.35897393184e-06
4.30918456644e-06
4.26097513305e-06
4.21481743737e-06
4.17131649902e-06
4.13123773414e-06
4.09726512128e-06
4.06505326836e-06
4.0377281633e-06
4.01547025738e-06
3.99847063556e-06
3.98698464457e-06
3.97703112193e-06
1.21417155525e-66
1.21417155525e-66
1.21417155525e-66
1.21417155526e-66
1.21417155526e-66
1.21417155526e-66
1.21417155526e-66
1.21417155526e-66
1.21417155526e-66
1.21417155526e-66
1.21417155526e-66
1.21417155526e-66
1.21417155527e-66
1.21417155527e-66
1.21417155527e-66
1.21417155527e-66
1.21417155527e-66
1.21417155527e-66
1.21417155527e-66
1.21417155527e-66
1.2141715553e-66
1.21417155668e-66
1.21417164202e-66
1.21417673036e-66
1.21448056709e-66
1.22341523711e-66
9.89753561114e-27
5.34493679236e-08
0.000492215396132
2.73967786376e-05
1.17301045301e-05
7.30437597471e-06
5.85269957492e-06
5.37709527303e-06
5.2230196632e-06
5.17129085299e-06
5.1419594021e-06
5.11845994773e-06
5.09437674048e-06
5.06873720747e-06
5.04138634702e-06
5.01214976771e-06
4.98113228042e-06
4.94815615785e-06
4.91312830176e-06
4.87592419834e-06
4.83694223899e-06
4.79584971104e-06
4.75274898195e-06
4.70810245441e-06
4.6617841621e-06
4.61394488049e-06
4.564702549e-06
4.51717399679e-06
4.46657235171e-06
4.41591046181e-06
4.36546727338e-06
4.31600117125e-06
4.26782981472e-06
4.22133724486e-06
4.17708205336e-06
4.1358195049e-06
4.09777655996e-06
4.06340844653e-06
4.0333786555e-06
4.01014152397e-06
3.9892715105e-06
3.97347599928e-06
3.96282066439e-06
3.95406462229e-06
1.21417155501e-66
1.21417155501e-66
1.21417155502e-66
1.21417155502e-66
1.21417155502e-66
1.21417155502e-66
1.21417155502e-66
1.21417155502e-66
1.21417155502e-66
1.21417155502e-66
1.21417155502e-66
1.21417155502e-66
1.21417155502e-66
1.21417155502e-66
1.21417155502e-66
1.21417155503e-66
1.21417155503e-66
1.21417155503e-66
1.21417155503e-66
1.21417155503e-66
1.21417155513e-66
1.21417156133e-66
1.21417194571e-66
1.21419452819e-66
1.21554661906e-66
1.23901637312e-66
1.77418095922e-18
6.65818338828e-05
0.000112076095804
1.91593652854e-05
9.58402623937e-06
6.61173705013e-06
5.63854322906e-06
5.32088062473e-06
5.21772649068e-06
5.18059632199e-06
5.15127867504e-06
5.12582786876e-06
5.09951383651e-06
5.07174275034e-06
5.04235762167e-06
5.01121078203e-06
4.9783588732e-06
4.94364481673e-06
4.90691504094e-06
4.86810770183e-06
4.82754039878e-06
4.78494466885e-06
4.74043455581e-06
4.69452954582e-06
4.64706157519e-06
4.60061196273e-06
4.5507038541e-06
4.50003917349e-06
4.44922818032e-06
4.39848194082e-06
4.348257993e-06
4.29915648553e-06
4.25160362685e-06
4.20590236638e-06
4.16262136714e-06
4.12482634411e-06
4.08786166076e-06
4.05457191958e-06
4.02560080801e-06
4.00094651753e-06
3.98095671179e-06
3.96580687024e-06
3.95559503929e-06
3.94747265719e-06
1.21417155487e-66
1.21417155487e-66
1.21417155487e-66
1.21417155487e-66
1.21417155487e-66
1.21417155488e-66
1.21417155488e-66
1.21417155488e-66
1.21417155488e-66
1.21417155488e-66
1.21417155488e-66
1.21417155488e-66
1.21417155488e-66
1.21417155488e-66
1.21417155488e-66
1.21417155488e-66
1.21417155488e-66
1.21417155488e-66
1.21417155488e-66
1.21417155489e-66
1.2141715552e-66
1.21417157422e-66
1.21417272342e-66
1.21423865792e-66
1.21807789459e-66
1.26816324473e-66
5.62783692801e-13
0.000263720196798
4.70242926651e-05
1.52599489932e-05
8.47139695988e-06
6.30242118586e-06
5.58808370641e-06
5.35125038879e-06
5.2741355321e-06
5.23876649613e-06
5.20993841723e-06
5.17845325482e-06
5.14870907583e-06
5.1173875389e-06
5.08458231863e-06
5.05000952868e-06
5.01363411963e-06
4.97547806306e-06
4.93553562725e-06
4.89365602013e-06
4.84989796068e-06
4.80692692258e-06
4.75985790435e-06
4.71128887226e-06
4.66137712618e-06
4.61054983173e-06
4.55896158878e-06
4.50677604923e-06
4.45452342871e-06
4.40270962507e-06
4.35159954542e-06
4.301977082e-06
4.25636640136e-06
4.2103680279e-06
4.16712006473e-06
4.12703626238e-06
4.09032147058e-06
4.05737717263e-06
4.02863055588e-06
4.00433741985e-06
3.98461206235e-06
3.96970253004e-06
3.95966189982e-06
3.95184771026e-06
1.21417155478e-66
1.21417155478e-66
1.21417155478e-66
1.21417155478e-66
1.21417155478e-66
1.21417155478e-66
1.21417155478e-66
1.21417155478e-66
1.21417155478e-66
1.21417155478e-66
1.21417155479e-66
1.21417155479e-66
1.21417155479e-66
1.21417155479e-66
1.21417155479e-66
1.21417155479e-66
1.21417155479e-66
1.21417155479e-66
1.21417155479e-66
1.2141715548e-66
1.21417155549e-66
1.21417159847e-66
1.21417426082e-66
1.21433528792e-66
1.22126203401e-66
3.75419364319e-27
6.65162238123e-09
0.000439289588818
3.25499883611e-05
1.302225899e-05
7.87411950788e-06
6.1797592763e-06
5.62987926505e-06
5.44386650307e-06
5.37678135284e-06
5.33838673583e-06
5.30452737882e-06
5.27077418211e-06
5.23591583895e-06
5.19981849558e-06
5.16216906589e-06
5.12289858404e-06
5.08216102515e-06
5.039663246e-06
4.99533656211e-06
4.94945529689e-06
4.90190154435e-06
4.85272118878e-06
4.80195550785e-06
4.75003822292e-06
4.69704558274e-06
4.6432053271e-06
4.58897284317e-06
4.5345208538e-06
4.48259492663e-06
4.42890953984e-06
4.37625155552e-06
4.32504896279e-06
4.27588971379e-06
4.22897711314e-06
4.18494136464e-06
4.14416564231e-06
4.10708379197e-06
4.07384085206e-06
4.04718343474e-06
4.02254476855e-06
4.00272200268e-06
3.98770016701e-06
3.97759428953e-06
3.96994030177e-06
1.21417155472e-66
1.21417155472e-66
1.21417155472e-66
1.21417155472e-66
1.21417155472e-66
1.21417155472e-66
1.21417155472e-66
1.21417155472e-66
1.21417155472e-66
1.21417155472e-66
1.21417155472e-66
1.21417155472e-66
1.21417155472e-66
1.21417155472e-66
1.21417155472e-66
1.21417155472e-66
1.21417155472e-66
1.21417155472e-66
1.21417155472e-66
1.21417155476e-66
1.21417155664e-66
1.21417167292e-66
1.21417855793e-66
1.21458950622e-66
1.22510059106e-66
1.42809385325e-26
1.50311460114e-07
0.00048689027137
2.57211917814e-05
1.16202091706e-05
7.51723999492e-06
6.18233840823e-06
5.73288848864e-06
5.57909858334e-06
5.51440892563e-06
5.4709544135e-06
5.4307231776e-06
5.39068175342e-06
5.3497998075e-06
5.30769688228e-06
5.26463833985e-06
5.22013001404e-06
5.17412750702e-06
5.12650073558e-06
5.07738429439e-06
5.02673704756e-06
4.97443135668e-06
4.92096874718e-06
4.86620810485e-06
4.81023339003e-06
4.75333327383e-06
4.69860837512e-06
4.6408648814e-06
4.58346940707e-06
4.52632632935e-06
4.47018623209e-06
4.41540528366e-06
4.36228121246e-06
4.31126359652e-06
4.26293568733e-06
4.22009754496e-06
4.17810807991e-06
4.13988370827e-06
4.10598463231e-06
4.0763470062e-06
4.05129286007e-06
4.03097307055e-06
4.01557526944e-06
4.00531108732e-06
3.99767618769e-06
1.21417155467e-66
1.21417155467e-66
1.21417155467e-66
1.21417155467e-66
1.21417155467e-66
1.21417155467e-66
1.21417155467e-66
1.21417155467e-66
1.21417155467e-66
1.21417155467e-66
1.21417155467e-66
1.21417155467e-66
1.21417155467e-66
1.21417155467e-66
1.21417155468e-66
1.21417155468e-66
1.21417155468e-66
1.21417155468e-66
1.21417155468e-66
1.21417155474e-66
1.2141715588e-66
1.21417180792e-66
1.21418651028e-66
1.21507990452e-66
1.23272024028e-66
2.72875570558e-19
1.72332849496e-05
0.000254389018102
2.15749787675e-05
1.06767867184e-05
7.35746065287e-06
6.24778923076e-06
5.87705679315e-06
5.746060697e-06
5.6810653882e-06
5.63199737355e-06
5.58490887778e-06
5.53782007729e-06
5.49009357823e-06
5.44136455068e-06
5.39183872653e-06
5.34107894552e-06
5.28897198714e-06
5.23574868441e-06
5.18120737644e-06
5.12519909245e-06
5.06788127375e-06
5.0093907395e-06
4.95238959879e-06
4.89197216415e-06
4.83079036134e-06
4.76946555084e-06
4.70815878251e-06
4.64707067319e-06
4.58681805794e-06
4.52769684726e-06
4.47267136831e-06
4.41713969257e-06
4.36403381493e-06
4.31363996712e-06
4.26665445672e-06
4.22331085245e-06
4.18391601517e-06
4.14877906079e-06
4.11813821546e-06
4.09244682669e-06
4.07409323676e-06
4.0582086923e-06
4.04761529817e-06
4.03983147281e-06
1.21417155463e-66
1.21417155464e-66
1.21417155464e-66
1.21417155464e-66
1.21417155464e-66
1.21417155464e-66
1.21417155464e-66
1.21417155464e-66
1.21417155464e-66
1.21417155464e-66
1.21417155464e-66
1.21417155464e-66
1.21417155464e-66
1.21417155464e-66
1.21417155464e-66
1.21417155464e-66
1.21417155464e-66
1.21417155464e-66
1.21417155464e-66
1.21417155479e-66
1.21417156371e-66
1.21417210915e-66
1.21420392608e-66
1.21610465841e-66
1.24626708389e-66
8.51458207891e-15
0.000118977246146
8.32384095808e-05
1.87854453932e-05
1.00445504722e-05
7.27918420466e-06
6.37186147909e-06
6.06052279079e-06
5.94222492949e-06
5.87421325196e-06
5.81854380181e-06
5.76391806856e-06
5.70934491541e-06
5.65423094962e-06
5.59830693979e-06
5.54154654496e-06
5.48398149332e-06
5.42523274538e-06
5.36564270846e-06
5.30475990577e-06
5.24566999025e-06
5.18264724842e-06
5.11863470351e-06
5.05389529179e-06
4.98841307358e-06
4.92278411874e-06
4.85703517236e-06
4.79139358975e-06
4.72912502232e-06
4.66497155232e-06
4.60247434757e-06
4.5419536514e-06
4.48355475106e-06
4.42800591967e-06
4.37552968828e-06
4.32904138323e-06
4.28385758237e-06
4.24286698398e-06
4.20638109319e-06
4.17475893082e-06
4.1480989661e-06
4.12661316935e-06
4.11030800993e-06
4.09926797618e-06
4.09123698249e-06
1.21417155461e-66
1.21417155461e-66
1.21417155461e-66
1.21417155461e-66
1.21417155461e-66
1.21417155461e-66
1.21417155461e-66
1.21417155461e-66
1.21417155461e-66
1.21417155461e-66
1.21417155461e-66
1.21417155461e-66
1.21417155461e-66
1.21417155461e-66
1.21417155461e-66
1.21417155461e-66
1.21417155461e-66
1.21417155461e-66
1.21417155462e-66
1.21417155491e-66
1.21417157249e-66
1.2141726337e-66
1.21423348847e-66
1.21777386742e-66
1.26518050395e-66
2.68282849181e-13
0.000235047111719
5.31187977423e-05
1.67849216065e-05
9.62677906423e-06
7.31151862784e-06
6.54982302134e-06
6.27922946945e-06
6.16474266247e-06
6.09386473757e-06
6.0302919579e-06
5.9676178414e-06
5.90452236661e-06
5.84120132361e-06
5.77716836824e-06
5.71264997626e-06
5.64754186813e-06
5.58435528472e-06
5.51757925058e-06
5.44991585633e-06
5.38151142628e-06
5.31224278444e-06
5.24245573964e-06
5.17209119611e-06
5.10120898512e-06
5.03312952873e-06
4.96238488377e-06
4.89241589384e-06
4.82323587176e-06
4.75526557828e-06
4.6890460318e-06
4.62765758778e-06
4.56596895172e-06
4.50749533358e-06
4.45250946278e-06
4.40120020629e-06
4.35409867713e-06
4.31144059418e-06
4.27355391845e-06
4.24055751823e-06
4.21533752153e-06
4.19289928198e-06
4.17602846889e-06
4.16459370359e-06
4.15640610758e-06
1.21417155459e-66
1.21417155459e-66
1.21417155459e-66
1.21417155459e-66
1.21417155459e-66
1.21417155459e-66
1.21417155459e-66
1.21417155459e-66
1.21417155459e-66
1.21417155459e-66
1.21417155459e-66
1.21417155459e-66
1.21417155459e-66
1.21417155459e-66
1.21417155459e-66
1.21417155459e-66
1.21417155459e-66
1.21417155459e-66
1.2141715546e-66
1.21417155512e-66
1.21417158626e-66
1.21417342706e-66
1.21427680981e-66
1.22006705145e-66
5.0025585754e-28
6.97738522874e-10
0.00035782227264
3.98874633807e-05
1.52829450501e-05
9.35595533044e-06
7.42116928886e-06
6.77329186904e-06
6.53693116015e-06
6.42141255552e-06
6.34142312824e-06
6.26761678967e-06
6.19525668325e-06
6.12288975328e-06
6.05044903693e-06
5.98060345999e-06
5.90740900371e-06
5.83387213803e-06
5.75993650992e-06
5.68527452917e-06
5.6102436134e-06
5.53482489245e-06
5.458779896e-06
5.38528089092e-06
5.30849609357e-06
5.23193105824e-06
5.15541218773e-06
5.07968045122e-06
5.00472462177e-06
4.93357191427e-06
4.86144744138e-06
4.79128006927e-06
4.72348808483e-06
4.65871250801e-06
4.59709328617e-06
4.54186269555e-06
4.48801543427e-06
4.43855313283e-06
4.39392910663e-06
4.35431466639e-06
4.32003457374e-06
4.29108885108e-06
4.26774490769e-06
4.25003624847e-06
4.23803931861e-06
4.22964378249e-06
1.21417155457e-66
1.21417155457e-66
1.21417155457e-66
1.21417155457e-66
1.21417155457e-66
1.21417155457e-66
1.21417155457e-66
1.21417155457e-66
1.21417155457e-66
1.21417155457e-66
1.21417155457e-66
1.21417155457e-66
1.21417155457e-66
1.21417155457e-66
1.21417155457e-66
1.21417155457e-66
1.21417155457e-66
1.21417155457e-66
1.21417155459e-66
1.21417155563e-66
1.21417162045e-66
1.21417555349e-66
1.21441024316e-66
1.22263094711e-66
6.59814771887e-27
1.88837676163e-08
0.000466014674301
3.24962923884e-05
1.41692620977e-05
9.19556274594e-06
7.60810054526e-06
7.04177279848e-06
6.82122201583e-06
6.70581918235e-06
6.61565777105e-06
6.53083246625e-06
6.44724215671e-06
6.36730583843e-06
6.28469971594e-06
6.20217474065e-06
6.1198234056e-06
6.0371896863e-06
5.9544730009e-06
5.87141078924e-06
5.79123961841e-06
5.70762126088e-06
5.6241831649e-06
5.54075636439e-06
5.45738732274e-06
5.37457080708e-06
5.29498216589e-06
5.21344028915e-06
5.13321968333e-06
5.0543545543e-06
4.9776959198e-06
4.90321013368e-06
4.83449439795e-06
4.76587845115e-06
4.70109295121e-06
4.64025785293e-06
4.58362995527e-06
4.53193744847e-06
4.48802885018e-06
4.44649054615e-06
4.41043240286e-06
4.38009577853e-06
4.35571847949e-06
4.33723105836e-06
4.32471030683e-06
4.31616662292e-06
1.21417155455e-66
1.21417155455e-66
1.21417155455e-66
1.21417155455e-66
1.21417155455e-66
1.21417155455e-66
1.21417155455e-66
1.21417155455e-66
1.21417155455e-66
1.21417155455e-66
1.21417155455e-66
1.21417155455e-66
1.21417155455e-66
1.21417155455e-66
1.21417155455e-66
1.21417155455e-66
1.21417155455e-66
1.21417155456e-66
1.21417155459e-66
1.21417155693e-66
1.21417169913e-66
1.21418001087e-66
1.21466918306e-66
1.22646790621e-66
1.6750819779e-26
2.32592846521e-07
0.000483982214111
2.74455472027e-05
1.32536894019e-05
9.16197940133e-06
7.83349598932e-06
7.35428863098e-06
7.14608288493e-06
7.02170243141e-06
6.91827166568e-06
6.82302438496e-06
6.72672710807e-06
6.63187519953e-06
6.53794364714e-06
6.44479191073e-06
6.35183337508e-06
6.25947712341e-06
6.17019540859e-06
6.07805040403e-06
5.98608546738e-06
5.89419651166e-06
5.80284194463e-06
5.71469772184e-06
5.62393144119e-06
5.53413294952e-06
5.4450300757e-06
5.35765061368e-06
5.27465745961e-06
5.19057429591e-06
5.10890252399e-06
5.0300711553e-06
4.95406353344e-06
4.88187719267e-06
4.81627364813e-06
4.75232958486e-06
4.69309272353e-06
4.63889017296e-06
4.58989778592e-06
4.54638622526e-06
4.50885114447e-06
4.47996094707e-06
4.45444297919e-06
4.43510177351e-06
4.42197869307e-06
4.41315340737e-06
1.21417155454e-66
1.21417155454e-66
1.21417155454e-66
1.21417155454e-66
1.21417155454e-66
1.21417155454e-66
1.21417155454e-66
1.21417155454e-66
1.21417155454e-66
1.21417155454e-66
1.21417155454e-66
1.21417155454e-66
1.21417155454e-66
1.21417155454e-66
1.21417155454e-66
1.21417155454e-66
1.21417155454e-66
1.21417155454e-66
1.21417155462e-66
1.21417155949e-66
1.21417185459e-66
1.2141890739e-66
1.21522033989e-66
1.2349348255e-66
5.95531566282e-19
2.32672514696e-05
0.000272791062159
2.3711947659e-05
1.25820484158e-05
9.22718691879e-06
8.11022901277e-06
7.69629678966e-06
7.50105159158e-06
7.36941558598e-06
7.25163537643e-06
7.13852443107e-06
7.02820713902e-06
6.91987933495e-06
6.81322142985e-06
6.71066738242e-06
6.6066142216e-06
6.50324521291e-06
6.40063698384e-06
6.29878088036e-06
6.20042454938e-06
6.09952373735e-06
5.99948557837e-06
5.90027645294e-06
5.80188068108e-06
5.70770283941e-06
5.61176797897e-06
5.51776654551e-06
5.42576429128e-06
5.33579726358e-06
5.25184076211e-06
5.16818640315e-06
5.08809267571e-06
5.01177729444e-06
4.93971961907e-06
4.87537482364e-06
4.81306634698e-06
4.75609048471e-06
4.70463923577e-06
4.65927841062e-06
4.62002910268e-06
4.5870308612e-06
4.56042571417e-06
4.54015209863e-06
4.52931255687e-06
4.51703739446e-06
1.21417155453e-66
1.21417155453e-66
1.21417155453e-66
1.21417155453e-66
1.21417155453e-66
1.21417155453e-66
1.21417155453e-66
1.21417155453e-66
1.21417155453e-66
1.21417155453e-66
1.21417155453e-66
1.21417155453e-66
1.21417155453e-66
1.21417155453e-66
1.21417155453e-66
1.21417155453e-66
1.21417155453e-66
1.21417155453e-66
1.21417155472e-66
1.21417156574e-66
1.21417223069e-66
1.21421058086e-66
1.21645985021e-66
1.25100979527e-66
1.65245331275e-14
0.000133457727255
8.7067332821e-05
2.09228182172e-05
1.21035435737e-05
9.36493692886e-06
8.43584553886e-06
8.07348174352e-06
7.88318203401e-06
7.74015227864e-06
7.60734107594e-06
7.4791994297e-06
7.35366961411e-06
7.23422544556e-06
7.11354843471e-06
6.99499963306e-06
6.87819859082e-06
6.76276394222e-06
6.65177779893e-06
6.53896184054e-06
6.42738955284e-06
6.31707146778e-06
6.21087900458e-06
6.10293951263e-06
5.99631292727e-06
5.89150415889e-06
5.78834353646e-06
5.69060111025e-06
5.5920347481e-06
5.49643932131e-06
5.40382246875e-06
5.31804012081e-06
5.23282029404e-06
5.15221761635e-06
5.07643651068e-06
5.00568274914e-06
4.94327694924e-06
4.88338562138e-06
4.82968022206e-06
4.78218715866e-06
4.74107540115e-06
4.70660706925e-06
4.67871851831e-06
4.65755045111e-06
4.64312609901e-06
4.63358651517e-06
1.21417155452e-66
1.21417155452e-66
1.21417155452e-66
1.21417155452e-66
1.21417155452e-66
1.21417155452e-66
1.21417155452e-66
1.21417155452e-66
1.21417155452e-66
1.21417155452e-66
1.21417155452e-66
1.21417155452e-66
1.21417155452e-66
1.21417155452e-66
1.21417155452e-66
1.21417155452e-66
1.21417155452e-66
1.21417155453e-66
1.21417155493e-66
1.21417157915e-66
1.21417301095e-66
1.21425356231e-66
1.21879859043e-66
1.27694682221e-66
1.29378691713e-11
0.000267927205821
5.36829019411e-05
1.87706367666e-05
1.18157165943e-05
9.59194090332e-06
8.81810594944e-06
8.49275501906e-06
8.29694222398e-06
8.13795869554e-06
7.98825331714e-06
7.84352426897e-06
7.70516665632e-06
7.56698071572e-06
7.43183773861e-06
7.29906858493e-06
7.17199561651e-06
7.0439435188e-06
6.91754432472e-06
6.79322781305e-06
6.67362028186e-06
6.55268362743e-06
6.43337793962e-06
6.3163478812e-06
6.20424173358e-06
6.09101977532e-06
5.9803836265e-06
5.87221721238e-06
5.77031542828e-06
5.66821594418e-06
5.57007942167e-06
5.47588000059e-06
5.38890970134e-06
5.30378127685e-06
5.22381774234e-06
5.14921495521e-06
5.08025924608e-06
5.02081670126e-06
4.96451546434e-06
4.91469799551e-06
4.87164008308e-06
4.83551772361e-06
4.80638097243e-06
4.78426041e-06
4.76911674207e-06
4.75924883482e-06
1.21417155451e-66
1.21417155451e-66
1.21417155451e-66
1.21417155451e-66
1.21417155451e-66
1.21417155451e-66
1.21417155451e-66
1.21417155451e-66
1.21417155451e-66
1.21417155451e-66
1.21417155451e-66
1.21417155451e-66
1.21417155451e-66
1.21417155451e-66
1.21417155451e-66
1.21417155451e-66
1.21417155451e-66
1.21417155453e-66
1.21417155537e-66
1.21417160652e-66
1.21417469186e-66
1.21435696835e-66
1.22203612264e-66
4.0918848574e-27
6.17836247472e-09
0.000415913036668
3.98920058672e-05
1.71956761237e-05
1.16889703967e-05
9.90029717495e-06
9.25563399751e-06
8.94757628577e-06
8.74124954492e-06
8.56367988014e-06
8.39810470434e-06
8.23464334569e-06
8.075930281e-06
7.92096813209e-06
7.7733151755e-06
7.62560681854e-06
7.48090302554e-06
7.34245346295e-06
7.20330316129e-06
7.06648031831e-06
6.93221318411e-06
6.80333541267e-06
6.67361120732e-06
6.54638813677e-06
6.42501474515e-06
6.30312249536e-06
6.18425423634e-06
6.0685875272e-06
5.95984815515e-06
5.85114076164e-06
5.74701260436e-06
5.64713621777e-06
5.55556969153e-06
5.46574539369e-06
5.38132479606e-06
5.30300074754e-06
5.23086491734e-06
5.16510994304e-06
5.10913472212e-06
5.05696703679e-06
5.01191807014e-06
4.97400119879e-06
4.943494615e-06
4.92026488012e-06
4.90431111494e-06
4.89411830524e-06
1.2141715545e-66
1.2141715545e-66
1.2141715545e-66
1.2141715545e-66
1.2141715545e-66
1.2141715545e-66
1.2141715545e-66
1.2141715545e-66
1.2141715545e-66
1.2141715545e-66
1.2141715545e-66
1.2141715545e-66
1.2141715545e-66
1.2141715545e-66
1.2141715545e-66
1.2141715545e-66
1.21417155451e-66
1.21417155455e-66
1.21417155697e-66
1.2141717025e-66
1.214180118e-66
1.21466863599e-66
1.22675632422e-66
1.58662457708e-26
1.63104110821e-07
0.000496717840045
3.17828475769e-05
1.60574787674e-05
1.1710396343e-05
1.02889803917e-05
9.73810185578e-06
9.43945343432e-06
9.21714404853e-06
9.02150475548e-06
8.83111455934e-06
8.64738838113e-06
8.47282263141e-06
8.29954094287e-06
8.13117405833e-06
7.97020299753e-06
7.81021615822e-06
7.65372620805e-06
7.50440622208e-06
7.35452432825e-06
7.20812577155e-06
7.06444696212e-06
6.9272252628e-06
6.78992650091e-06
6.6553296074e-06
6.52794582017e-06
6.40017345068e-06
6.27654212935e-06
6.15684893987e-06
6.04484050463e-06
5.93424280001e-06
5.82885666858e-06
5.72852362633e-06
5.63732832855e-06
5.548747349e-06
5.4663897121e-06
5.39055999749e-06
5.32172660117e-06
5.2632540693e-06
5.20868684548e-06
5.16158215355e-06
5.1219664981e-06
5.09003138205e-06
5.06566081283e-06
5.04892101349e-06
5.03829155987e-06
1.2141715545e-66
1.2141715545e-66
1.2141715545e-66
1.2141715545e-66
1.2141715545e-66
1.2141715545e-66
1.2141715545e-66
1.2141715545e-66
1.2141715545e-66
1.2141715545e-66
1.2141715545e-66
1.2141715545e-66
1.2141715545e-66
1.2141715545e-66
1.2141715545e-66
1.2141715545e-66
1.2141715545e-66
1.21417155461e-66
1.21417156092e-66
1.21417193829e-66
1.21419365544e-66
1.21546534172e-66
1.23859867433e-66
1.11691590167e-18
3.46517477994e-05
0.000297325837419
2.65041053905e-05
1.52099857986e-05
1.18703637536e-05
1.0747371246e-05
1.02645417737e-05
9.96753289287e-06
9.72570647086e-06
9.50177817916e-06
9.28801751852e-06
9.08567555432e-06
8.886930478e-06
8.69809726262e-06
8.511420377e-06
8.32983045496e-06
8.15685589325e-06
7.98491672024e-06
7.81706744374e-06
7.65707654675e-06
7.49733521051e-06
7.34170036843e-06
7.19333654202e-06
7.04501938395e-06
6.90060134381e-06
6.76384501652e-06
6.62734926863e-06
6.49550223298e-06
6.36811680337e-06
6.24930174694e-06
6.13191976041e-06
6.02018910127e-06
5.91452387016e-06
5.81851908641e-06
5.72514312591e-06
5.6388634908e-06
5.55955606144e-06
5.49111281435e-06
5.42616221417e-06
5.36924841495e-06
5.32007958433e-06
5.27867186776e-06
5.24529554976e-06
5.21975428106e-06
5.20211640397e-06
5.19102000081e-06
1.21417155449e-66
1.21417155449e-66
1.21417155449e-66
1.21417155449e-66
1.21417155449e-66
1.21417155449e-66
1.21417155449e-66
1.21417155449e-66
1.21417155449e-66
1.21417155449e-66
1.21417155449e-66
1.21417155449e-66
1.21417155449e-66
1.21417155449e-66
1.21417155449e-66
1.21417155449e-66
1.2141715545e-66
1.2141715548e-66
1.21417157289e-66
1.21417264215e-66
1.2142329312e-66
1.2176466017e-66
1.26501695965e-66
3.97068873204e-15
0.000186849293279
7.98331368852e-05
2.29405577736e-05
1.47109403902e-05
1.21521771085e-05
1.12568808202e-05
1.08233710011e-05
1.05199721333e-05
1.02555922139e-05
1.000622133e-05
9.77088591347e-06
9.54118836083e-06
9.32404957158e-06
9.11087721065e-06
8.90873191006e-06
8.70890258514e-06
8.5152744759e-06
8.33088051363e-06
8.14769233826e-06
7.96998381137e-06
7.80021611836e-06
7.63131480734e-06
7.47104702009e-06
7.3113682979e-06
7.15665998934e-06
7.0102317809e-06
6.86472950972e-06
6.72450539263e-06
6.58945874059e-06
6.46337492693e-06
6.33950551526e-06
6.22181951069e-06
6.11400330335e-06
6.00924897014e-06
5.91130484368e-06
5.82062934601e-06
5.7374457186e-06
5.66569577996e-06
5.59810618799e-06
5.53863764608e-06
5.48724651704e-06
5.4441132737e-06
5.40912366236e-06
5.38235264536e-06
5.36377086587e-06
5.35208480083e-06
1.21417155448e-66
1.21417155448e-66
1.21417155448e-66
1.21417155448e-66
1.21417155448e-66
1.21417155448e-66
1.21417155448e-66
1.21417155448e-66
1.21417155449e-66
1.21417155449e-66
1.21417155449e-66
1.21417155449e-66
1.21417155449e-66
1.21417155449e-66
1.21417155449e-66
1.21417155449e-66
1.2141715545e-66
1.21417155533e-66
1.21417160286e-66
1.21417435083e-66
1.21433171266e-66
1.22182777742e-66
2.75923452047e-27
2.65931707729e-09
0.000372799154394
4.80963091615e-05
2.05838622061e-05
1.44953552972e-05
1.25675148377e-05
1.18347682325e-05
1.14206118626e-05
1.10997732485e-05
1.08088517171e-05
1.05360158844e-05
1.02711913382e-05
1.0020779804e-05
9.77643625904e-06
9.54507750734e-06
9.31797104547e-06
9.10281819912e-06
8.89124655116e-06
8.68986424708e-06
8.49110445484e-06
8.29814883865e-06
8.11476234948e-06
7.93290717747e-06
7.76048785715e-06
7.58904866944e-06
7.42322111648e-06
7.26651840157e-06
7.11167759284e-06
6.96258955402e-06
6.82343270937e-06
6.68646449459e-06
6.55603664908e-06
6.43206720186e-06
6.31875450594e-06
6.20886605405e-06
6.10647316907e-06
6.01174061842e-06
5.92860211337e-06
5.8497070493e-06
5.7790577223e-06
5.71667917766e-06
5.6630555515e-06
5.61798341741e-06
5.58139537996e-06
5.55726313098e-06
5.53768260226e-06
5.52550838399e-06
1.21417155448e-66
1.21417155448e-66
1.21417155448e-66
1.21417155448e-66
1.21417155448e-66
1.21417155448e-66
1.21417155448e-66
1.21417155448e-66
1.21417155448e-66
1.21417155448e-66
1.21417155448e-66
1.21417155448e-66
1.21417155448e-66
1.21417155448e-66
1.21417155448e-66
1.21417155448e-66
1.21417155453e-66
1.21417155754e-66
1.2141717351e-66
1.21418181723e-66
1.21475431565e-66
1.22829106495e-66
1.7693438978e-26
2.04579205762e-07
0.000498732754903
3.54921267109e-05
1.89383665869e-05
1.45293644359e-05
1.30885894181e-05
1.24634821552e-05
1.20546461811e-05
1.17096744527e-05
1.13876761521e-05
1.10854536291e-05
1.07931529989e-05
1.05174015687e-05
1.02487531425e-05
9.99475612029e-06
9.74642786703e-06
9.51155935211e-06
9.28032489161e-06
9.06140161725e-06
8.84532991202e-06
8.63727567142e-06
8.43946251532e-06
8.24423018358e-06
8.05928751285e-06
7.87631176972e-06
7.69935127938e-06
7.53286138531e-06
7.36827105886e-06
7.21033818187e-06
7.06293564159e-06
6.91820789676e-06
6.78070949299e-06
6.65458878849e-06
6.53167020972e-06
6.41658141736e-06
6.30951844444e-06
6.21471975317e-06
6.12399744558e-06
6.0416146273e-06
5.96810741836e-06
5.90335915481e-06
5.84744225589e-06
5.80438461663e-06
5.76620925942e-06
5.73694095956e-06
5.71637813219e-06
5.70363833364e-06
1.21417155447e-66
1.21417155447e-66
1.21417155447e-66
1.21417155448e-66
1.21417155448e-66
1.21417155448e-66
1.21417155448e-66
1.21417155448e-66
1.21417155448e-66
1.21417155448e-66
1.21417155448e-66
1.21417155448e-66
1.21417155448e-66
1.21417155448e-66
1.21417155448e-66
1.21417155448e-66
1.21417155465e-66
1.21417156498e-66
1.21417217105e-66
1.21420610847e-66
1.21611538825e-66
1.24750972063e-66
6.21004470494e-16
7.6292617619e-05
0.000238966209629
2.87306084377e-05
1.79319879023e-05
1.4811556718e-05
1.37088081711e-05
1.3145140218e-05
1.27181743978e-05
1.23382771837e-05
1.19857490988e-05
1.16478397185e-05
1.1330603758e-05
1.10237191766e-05
1.07342344781e-05
1.04570381e-05
1.01869146342e-05
9.93109737124e-06
9.68096289005e-06
9.43980174211e-06
9.21123545402e-06
8.98685656566e-06
8.77380848316e-06
8.56416182014e-06
8.36618770113e-06
8.17141658669e-06
7.983648937e-06
7.8067513604e-06
7.63275749313e-06
7.47040934373e-06
7.31053304631e-06
7.1584087188e-06
7.01823846434e-06
6.88143572239e-06
6.75267783966e-06
6.63231895697e-06
6.52467504828e-06
6.42139030614e-06
6.32709106863e-06
6.2416669416e-06
6.16523556105e-06
6.10197774845e-06
6.04378176455e-06
5.99478299539e-06
5.95512250313e-06
5.92448578592e-06
5.90298486666e-06
5.88957894449e-06
1.21417155447e-66
1.21417155447e-66
1.21417155447e-66
1.21417155447e-66
1.21417155447e-66
1.21417155447e-66
1.21417155447e-66
1.21417155447e-66
1.21417155447e-66
1.21417155447e-66
1.21417155447e-66
1.21417155447e-66
1.21417155447e-66
1.21417155447e-66
1.21417155447e-66
1.21417155448e-66
1.21417155513e-66
1.21417159213e-66