/*--------------------------------*- C++ -*----------------------------------*\
| =========                 |                                                 |
| \\      /  F ield         | foam-extend: Open Source CFD                    |
|  \\    /   O peration     | Version:     4.1                                |
|   \\  /    A nd           | Web:         http://www.foam-extend.org         |
|    \\/     M anipulation  |                                                 |
\*---------------------------------------------------------------------------*/
FoamFile
{
    version     2.0;
    format      ascii;
    class       volScalarField;
    location    "0.0004";
    object      NPlus;
}
// * * * * * * * * * * * * * * * * * * * * * * * * * * * * * * * * * * * * * //

dimensions      [0 0 0 0 0 0 0];

internalField   nonuniform List<scalar> 
8400
(
9.99867026187e-266
9.99867026193e-266
9.99867026199e-266
9.99867026205e-266
9.99867026211e-266
9.99867026217e-266
9.99867026223e-266
9.99867026228e-266
9.99867026234e-266
9.99867026239e-266
9.99867026244e-266
9.9986702625e-266
9.99867026255e-266
9.9986702626e-266
9.99867026265e-266
9.9986702627e-266
9.99867026274e-266
9.99867026279e-266
9.99867026284e-266
9.99867026288e-266
9.99867026293e-266
9.99867026354e-266
9.99867029753e-266
9.99867235604e-266
9.99879184211e-266
1.00058703453e-265
1.01612836126e-265
3.92238214919e-99
3.01368564539e-16
0.000734236166278
0.222657549339
0.413608000447
0.506545681388
0.544456402384
0.55891370928
0.563937333897
0.565737570881
0.566683873298
0.56742944299
0.568122801228
0.568744787179
0.5694333642
0.570131159465
0.570845047424
0.571584009757
0.572354603831
0.573161188055
0.574005141997
0.574830110075
0.575756745294
0.576725332133
0.577737420744
0.578784456034
0.579870709846
0.580988466285
0.582127709496
0.583220316513
0.584374717612
0.585521299672
0.586649105949
0.587738879741
0.588778590661
0.589753451577
0.590650185342
0.591384143877
0.59207343915
0.592640596302
0.593075066826
0.59336858061
0.593790793766
9.99867024782e-266
9.99867024784e-266
9.99867024786e-266
9.99867024789e-266
9.99867024791e-266
9.99867024794e-266
9.99867024796e-266
9.99867024798e-266
9.998670248e-266
9.99867024803e-266
9.99867024805e-266
9.99867024807e-266
9.99867024809e-266
9.99867024811e-266
9.99867024813e-266
9.99867024815e-266
9.99867024817e-266
9.99867024819e-266
9.99867024821e-266
9.99867024823e-266
9.9986702483e-266
9.99867025157e-266
9.99867044842e-266
9.99868232189e-266
9.99936198599e-266
1.00390044274e-265
1.05759203079e-265
1.34019677582e-34
1.83054126927e-06
0.0724662002192
0.321642324655
0.467138570522
0.531769375485
0.556591911624
0.565490238396
0.568246572807
0.569252508939
0.569972395776
0.570583970375
0.571211335341
0.571865788452
0.5725510802
0.573271034705
0.574026611087
0.574816169218
0.575645911353
0.576519583784
0.577433268205
0.578387512529
0.579383786046
0.580416370772
0.581429907786
0.582531201448
0.583660548504
0.584814121967
0.585979013423
0.587146317066
0.588310782746
0.589452623716
0.590563826099
0.591632027401
0.592642326635
0.593579313759
0.594375885785
0.595134938926
0.595780738398
0.596308194458
0.596712148558
0.596988213576
0.597290464172
9.99867024222e-266
9.99867024223e-266
9.99867024225e-266
9.99867024226e-266
9.99867024228e-266
9.99867024229e-266
9.99867024231e-266
9.99867024232e-266
9.99867024233e-266
9.99867024235e-266
9.99867024236e-266
9.99867024237e-266
9.99867024238e-266
9.9986702424e-266
9.99867024241e-266
9.99867024242e-266
9.99867024243e-266
9.99867024245e-266
9.99867024246e-266
9.99867024247e-266
9.99867024276e-266
9.99867025971e-266
9.99867130758e-266
9.9987337823e-266
1.00024642924e-265
1.01121642514e-265
1.94536477658e-99
1.08972895994e-19
0.000165818424592
0.18719944642
0.397916836091
0.503242164433
0.546809422032
0.562984774957
0.568319152834
0.569963064027
0.570739361779
0.571304693115
0.571866783664
0.572455632241
0.573079170101
0.573740099844
0.57443830027
0.575176765238
0.575960009355
0.576788966277
0.577658019742
0.578572674673
0.579531870679
0.580527741306
0.581561385614
0.582630711337
0.583736671468
0.584807524405
0.585951730431
0.587100538946
0.58824914029
0.589381127669
0.590489042881
0.591562721724
0.592588718576
0.593550977964
0.594442091989
0.595248956009
0.595958545207
0.596507321382
0.597003996141
0.597380455687
0.597635220516
0.597894920608
9.9986702393e-266
9.99867023931e-266
9.99867023932e-266
9.99867023933e-266
9.99867023934e-266
9.99867023935e-266
9.99867023936e-266
9.99867023937e-266
9.99867023938e-266
9.99867023939e-266
9.9986702394e-266
9.99867023941e-266
9.99867023942e-266
9.99867023943e-266
9.99867023943e-266
9.99867023944e-266
9.99867023945e-266
9.99867023946e-266
9.99867023947e-266
9.9986702395e-266
9.99867024073e-266
9.99867031682e-266
9.99867503626e-266
9.99895230413e-266
1.0015553288e-265
1.03037151399e-265
3.95965700417e-63
1.55240530108e-08
0.0181026993117
0.274279438641
0.445036125035
0.523223968286
0.554156882586
0.56519596418
0.568685310077
0.56980170833
0.570529962086
0.571126023716
0.571731401599
0.572363258429
0.573027177344
0.573726142923
0.574460559805
0.575233285326
0.576050234298
0.576910890937
0.577811059439
0.578755883993
0.579743245916
0.580764068069
0.581821529172
0.582857956429
0.583976758401
0.585117363683
0.586264987987
0.587415721326
0.58855943661
0.589682411684
0.590776684678
0.591832609686
0.592836989704
0.593716632465
0.594582835947
0.595364380567
0.59604858407
0.596631395729
0.597106369405
0.597467314011
0.597711191881
0.597949296967
9.99867023756e-266
9.99867023757e-266
9.99867023758e-266
9.99867023758e-266
9.99867023759e-266
9.9986702376e-266
9.99867023761e-266
9.99867023762e-266
9.99867023762e-266
9.99867023763e-266
9.99867023764e-266
9.99867023764e-266
9.99867023765e-266
9.99867023766e-266
9.99867023767e-266
9.99867023767e-266
9.99867023768e-266
9.99867023769e-266
9.99867023769e-266
9.99867023776e-266
9.99867024162e-266
9.99867047515e-266
9.99868458505e-266
9.99949412936e-266
1.00466323119e-265
1.06615806923e-265
9.53365613239e-34
3.7765792125e-06
0.0869572502405
0.332894731403
0.472844101548
0.533505505139
0.556917557061
0.565069414058
0.567572224192
0.568538449947
0.569226324885
0.569940950272
0.570611477792
0.571311380727
0.572042552694
0.57280826407
0.573612033673
0.574453163552
0.575332490341
0.576255498887
0.577219701225
0.578166711671
0.579207144841
0.580281654307
0.581388053243
0.582518413039
0.583671648964
0.584843080891
0.586021015951
0.587193974397
0.588355636611
0.589490173466
0.590536992656
0.591598993218
0.59260055539
0.59353476501
0.594392934711
0.59516630804
0.595843468752
0.596417655221
0.596884252892
0.597239282564
0.597478910531
0.597706295463
9.99867023643e-266
9.99867023644e-266
9.99867023644e-266
9.99867023645e-266
9.99867023646e-266
9.99867023646e-266
9.99867023647e-266
9.99867023648e-266
9.99867023648e-266
9.99867023649e-266
9.99867023649e-266
9.9986702365e-266
9.99867023651e-266
9.99867023651e-266
9.99867023652e-266
9.99867023652e-266
9.99867023653e-266
9.99867023653e-266
9.99867023654e-266
9.99867023668e-266
9.99867024516e-266
9.99867077287e-266
9.9987034612e-266
1.00006805534e-265
1.00857272044e-265
7.56863241309e-100
2.55976910828e-22
4.8738262037e-05
0.150401221745
0.373445964684
0.489534117013
0.538729676225
0.557104720284
0.563387102352
0.56541284634
0.566375145479
0.567146139611
0.567896398226
0.56866390699
0.569456455763
0.570279961026
0.571136419741
0.572025171137
0.572950654127
0.573916000455
0.57491660806
0.575954675883
0.577030051979
0.578144148054
0.57928646277
0.580455645126
0.581647236271
0.582852553132
0.584070320994
0.58523579427
0.586447738405
0.587641269674
0.588807041195
0.589931803479
0.591012649714
0.592031462461
0.592977962802
0.593843090356
0.594621800151
0.595247318517
0.595828820814
0.596298315273
0.596654226606
0.596893659392
0.597113673296
9.99867023565e-266
9.99867023566e-266
9.99867023566e-266
9.99867023567e-266
9.99867023567e-266
9.99867023568e-266
9.99867023568e-266
9.99867023569e-266
9.99867023569e-266
9.9986702357e-266
9.9986702357e-266
9.99867023571e-266
9.99867023571e-266
9.99867023572e-266
9.99867023572e-266
9.99867023573e-266
9.99867023573e-266
9.99867023574e-266
9.99867023575e-266
9.99867023612e-266
9.9986702593e-266
9.99867168694e-266
9.99875622122e-266
1.00038018479e-265
1.01328570424e-265
2.752939953e-99
2.73333552672e-18
0.000312247969757
0.20260700474
0.402242695526
0.500510089536
0.540627487468
0.555663900071
0.560702186246
0.562499573351
0.563517573499
0.564401003575
0.56526834966
0.566150068236
0.567055492999
0.567981136267
0.568936623405
0.569923854826
0.570948114779
0.5720054411
0.573097173222
0.574226496588
0.575385737151
0.576576910877
0.577798985073
0.579046908672
0.580250126444
0.581525956176
0.58280079894
0.584077310173
0.58533761539
0.586573749435
0.587778554152
0.588941347267
0.590049450081
0.591036354338
0.592008394953
0.592894982197
0.593685685546
0.594378372635
0.594968151065
0.595447217662
0.59581027078
0.596053007663
0.59627064335
9.99867023508e-266
9.99867023508e-266
9.99867023509e-266
9.99867023509e-266
9.9986702351e-266
9.9986702351e-266
9.99867023511e-266
9.99867023511e-266
9.99867023512e-266
9.99867023512e-266
9.99867023512e-266
9.99867023513e-266
9.99867023513e-266
9.99867023514e-266
9.99867023514e-266
9.99867023515e-266
9.99867023515e-266
9.99867023515e-266
9.99867023517e-266
9.99867023599e-266
9.99867028581e-266
9.99867334454e-266
9.9988538602e-266
1.00098229627e-265
1.02264111642e-265
6.48477789437e-64
1.00003230874e-10
0.00332980924485
0.245917478755
0.423541672507
0.506852209266
0.540782764578
0.55318047249
0.557314634996
0.558989184092
0.560081214866
0.561085681919
0.562080952125
0.563087160496
0.56411453711
0.565159537491
0.566231260432
0.567332800383
0.568459972453
0.569618316151
0.570810675763
0.572034952174
0.573289736187
0.574515526998
0.575823068262
0.57715237682
0.578491468987
0.579836979784
0.581184723685
0.58252085419
0.583839489879
0.585071856708
0.586324036109
0.587527340632
0.588676246415
0.589753099687
0.590750613953
0.591660835575
0.592477246836
0.5931897969
0.59379117183
0.594219532851
0.594592262821
0.594841471305
0.595061547632
9.99867023465e-266
9.99867023465e-266
9.99867023466e-266
9.99867023466e-266
9.99867023466e-266
9.99867023467e-266
9.99867023467e-266
9.99867023468e-266
9.99867023468e-266
9.99867023468e-266
9.99867023469e-266
9.99867023469e-266
9.99867023469e-266
9.9986702347e-266
9.9986702347e-266
9.99867023471e-266
9.99867023471e-266
9.99867023471e-266
9.99867023475e-266
9.99867023654e-266
9.99867034611e-266
9.99867704298e-266
9.99906769159e-266
1.00224049003e-265
1.03927394321e-265
4.3038065316e-47
1.48696927645e-07
0.0321467620873
0.281895870719
0.439289326136
0.511082815516
0.539463140351
0.549790671989
0.553323494054
0.554955972613
0.556145152023
0.55727810827
0.558405415188
0.559543978339
0.560700340732
0.561875659082
0.563069665817
0.564291623339
0.565534593953
0.566809467809
0.568049574249
0.569378708889
0.570734332159
0.572112490307
0.573513841893
0.574925342806
0.576346589472
0.577774605318
0.579135454326
0.580548026323
0.581931610993
0.583278523775
0.584585768441
0.585836485987
0.587025188161
0.588081422818
0.589114202373
0.59005650621
0.590897662108
0.591629426323
0.592247780938
0.592747911993
0.59312756034
0.593384816564
0.593609078237
9.99867023431e-266
9.99867023431e-266
9.99867023431e-266
9.99867023432e-266
9.99867023432e-266
9.99867023433e-266
9.99867023433e-266
9.99867023433e-266
9.99867023434e-266
9.99867023434e-266
9.99867023434e-266
9.99867023435e-266
9.99867023435e-266
9.99867023435e-266
9.99867023436e-266
9.99867023436e-266
9.99867023436e-266
9.99867023437e-266
9.99867023443e-266
9.99867023799e-266
9.9986704539e-266
9.99868348344e-266
9.99943065882e-266
1.00428994634e-265
1.06249585742e-265
4.6397404313e-34
2.30901551683e-06
0.0717840532844
0.312062305267
0.450984479974
0.512792606303
0.5368977517
0.54565837124
0.548828931022
0.550427782051
0.551736183132
0.553002106247
0.554275359516
0.55555541727
0.556852601489
0.558163328388
0.559490782571
0.560782134935
0.562152998001
0.563546955777
0.564962206666
0.566402270788
0.567861350918
0.569340692611
0.570840147344
0.572286864569
0.573800562277
0.575306360435
0.576804761136
0.578286945415
0.57974075546
0.581094610184
0.582465483322
0.583771529299
0.585005975313
0.58616443637
0.587233104473
0.588205403759
0.589073688628
0.589832840601
0.590412311123
0.590929817877
0.591319767376
0.591583916453
0.591808593843
9.99867023403e-266
9.99867023404e-266
9.99867023404e-266
9.99867023404e-266
9.99867023405e-266
9.99867023405e-266
9.99867023405e-266
9.99867023406e-266
9.99867023406e-266
9.99867023406e-266
9.99867023407e-266
9.99867023407e-266
9.99867023407e-266
9.99867023408e-266
9.99867023408e-266
9.99867023408e-266
9.99867023408e-266
9.99867023409e-266
9.9986702342e-266
9.99867024063e-266
9.9986706229e-266
9.99869322426e-266
9.99996255863e-266
1.00710551977e-265
1.02237435211e-100
5.82861172478e-25
1.51642248352e-05
0.113683536538
0.337692401535
0.459776048659
0.512758193579
0.533343212251
0.540760495367
0.543706241972
0.545401296783
0.546868844281
0.548293256275
0.549718925323
0.551151123655
0.552535002802
0.553992718634
0.555462876515
0.556947490513
0.558454303751
0.559975583991
0.561512282975
0.563070737468
0.564584589672
0.56617718044
0.567774981019
0.569382433885
0.570983757711
0.572580461241
0.574104087649
0.575660186593
0.577184236651
0.578666569195
0.580092161253
0.581457378231
0.582685585047
0.583891433131
0.585005327242
0.586014263035
0.586912887324
0.587694596765
0.588355161837
0.588890314861
0.589295709213
0.589569676187
0.58979571719
9.99867023381e-266
9.99867023381e-266
9.99867023382e-266
9.99867023382e-266
9.99867023382e-266
9.99867023383e-266
9.99867023383e-266
9.99867023383e-266
9.99867023383e-266
9.99867023384e-266
9.99867023384e-266
9.99867023384e-266
9.99867023385e-266
9.99867023385e-266
9.99867023385e-266
9.99867023385e-266
9.99867023386e-266
9.99867023386e-266
9.99867023407e-266
9.99867024682e-266
9.99867104278e-266
9.99871933259e-266
1.00016008545e-265
1.01025347318e-265
1.31014986298e-99
4.32117765619e-21
7.59556539422e-05
0.153028077262
0.359012907112
0.466338187243
0.511087574792
0.528874086517
0.535386974164
0.538115058999
0.539926129798
0.541559466041
0.543162948607
0.544698637167
0.54629346976
0.547893741883
0.549498464102
0.551117460323
0.5527470641
0.554393509676
0.555990183915
0.557667375959
0.559351428725
0.5610459146
0.562750643827
0.564456075886
0.566104709725
0.567807375772
0.569493980021
0.571164297385
0.572800110468
0.574401135386
0.575885801137
0.57738098834
0.578801081975
0.580142448471
0.581398000892
0.582551391582
0.58353391538
0.584468844323
0.585283841219
0.585971007687
0.586524605413
0.586943566524
0.587226200887
0.58745256877
9.99867023362e-266
9.99867023362e-266
9.99867023363e-266
9.99867023363e-266
9.99867023363e-266
9.99867023364e-266
9.99867023364e-266
9.99867023364e-266
9.99867023364e-266
9.99867023365e-266
9.99867023365e-266
9.99867023365e-266
9.99867023366e-266
9.99867023366e-266
9.99867023366e-266
9.99867023366e-266
9.99867023367e-266
9.99867023368e-266
9.99867023415e-266
9.99867026282e-266
9.9986720088e-266
9.99877406036e-266
1.00047801209e-265
1.01496449501e-265
3.18258203769e-99
1.17818399341e-17
0.000348636535881
0.191013992903
0.378042770249
0.470401766963
0.508593883572
0.523572703132
0.529304180032
0.532009961341
0.533992880497
0.535770227332
0.537568400375
0.539346674958
0.541117144643
0.542883081692
0.54465555029
0.546428548861
0.548151669507
0.549943517027
0.551743667411
0.553554443939
0.555369226105
0.557130007067
0.558959546031
0.560781787384
0.562603681377
0.564405168856
0.566125788609
0.567884788278
0.569605911116
0.571278347943
0.572904275472
0.574460533669
0.575880350996
0.577275230333
0.578576334274
0.57977273665
0.58085904688
0.581827348788
0.582668149835
0.583313656164
0.583887885129
0.584321542107
0.584614014757
0.584842848971
9.99867023346e-266
9.99867023347e-266
9.99867023347e-266
9.99867023347e-266
9.99867023347e-266
9.99867023348e-266
9.99867023348e-266
9.99867023348e-266
9.99867023348e-266
9.99867023349e-266
9.99867023349e-266
9.99867023349e-266
9.99867023349e-266
9.9986702335e-266
9.9986702335e-266
9.9986702335e-266
9.9986702335e-266
9.99867023352e-266
9.99867023451e-266
9.99867029429e-266
9.99867391756e-266
9.99888533631e-266
1.00115472295e-265
1.02536018615e-265
1.38349507898e-63
2.94357193461e-10
0.00286817530379
0.227287289577
0.393702404735
0.472531365972
0.505086310441
0.517752351877
0.522748029381
0.525410960509
0.52757837752
0.52962757001
0.53163298521
0.533614111805
0.535577567667
0.537475838466
0.539416987505
0.541358618099
0.543299882422
0.545243416448
0.547131360765
0.549085290745
0.551037332885
0.552989369861
0.554941295831
0.556821430541
0.558755173574
0.560664839786
0.562549152786
0.564407048528
0.566153110395
0.567907111765
0.569598467909
0.571222272044
0.572767310268
0.574153606003
0.575506339954
0.576749265905
0.577877257148
0.578877402756
0.579745274636
0.580475404292
0.581064910099
0.581514832454
0.581750675794
0.582055837281
9.99867023333e-266
9.99867023333e-266
9.99867023333e-266
9.99867023333e-266
9.99867023334e-266
9.99867023334e-266
9.99867023334e-266
9.99867023334e-266
9.99867023335e-266
9.99867023335e-266
9.99867023335e-266
9.99867023335e-266
9.99867023336e-266
9.99867023336e-266
9.99867023336e-266
9.99867023336e-266
9.99867023336e-266
9.9986702334e-266
9.99867023564e-266
9.99867037096e-266
9.99867853525e-266
9.99914939894e-266
1.00267659483e-265
1.04509704853e-265
7.95556538359e-47
2.32368951479e-07
0.0300477905591
0.260612739275
0.406475883153
0.473239949899
0.500656300528
0.511337559662
0.51579984666
0.51850678024
0.520858759973
0.523113670046
0.525334888936
0.527462682704
0.529630430166
0.531775426916
0.533906732195
0.536029979002
0.538086646317
0.540196505484
0.542298897514
0.544397657638
0.546431494777
0.548518731286
0.550599376736
0.552660127256
0.554708257373
0.55666249156
0.558652735901
0.560598832844
0.562501900814
0.564275230823
0.566053280342
0.567746721715
0.569349479909
0.570857949655
0.572194093509
0.573486349401
0.574650556048
0.575684056227
0.576581415127
0.577336212829
0.577946457146
0.578409355819
0.578723762153
0.578960649153
9.99867023321e-266
9.99867023321e-266
9.99867023321e-266
9.99867023321e-266
9.99867023322e-266
9.99867023322e-266
9.99867023322e-266
9.99867023322e-266
9.99867023323e-266
9.99867023323e-266
9.99867023323e-266
9.99867023323e-266
9.99867023323e-266
9.99867023324e-266
9.99867023324e-266
9.99867023324e-266
9.99867023324e-266
9.99867023333e-266
9.99867023833e-266
9.99867053559e-266
9.99868811524e-266
9.99967712561e-266
1.00554810219e-265
1.07694255358e-265
1.53891070863e-29
4.0044832821e-06
0.0719961844314
0.291026184846
0.416248369582
0.472298233504
0.495220169357
0.504252523206
0.508410573353
0.511244090797
0.513802271324
0.516276494593
0.518656902977
0.521056422233
0.523423989764
0.525770973215
0.528035641569
0.530339786993
0.532635308209
0.534913506103
0.537124133387
0.539381363143
0.541628739499
0.543852831836
0.546000256215
0.548191829583
0.550351388438
0.552485314808
0.554508997895
0.556558234791
0.558544959913
0.560467663715
0.562255416394
0.564021047244
0.565692425068
0.567262955382
0.568724918125
0.569988015969
0.571192939806
0.572263845921
0.573192402239
0.573973430212
0.574603634357
0.575081102602
0.575405290438
0.575643440852
9.9986702331e-266
9.99867023311e-266
9.99867023311e-266
9.99867023311e-266
9.99867023311e-266
9.99867023311e-266
9.99867023312e-266
9.99867023312e-266
9.99867023312e-266
9.99867023312e-266
9.99867023313e-266
9.99867023313e-266
9.99867023313e-266
9.99867023313e-266
9.99867023313e-266
9.99867023314e-266
9.99867023314e-266
9.99867023332e-266
9.99867024372e-266
9.99867087169e-266
9.99870875348e-266
1.00009467459e-265
1.00952314715e-265
8.19000757612e-100
1.87058179701e-22
3.37114240525e-05
0.116711663996
0.317067928147
0.423351171251
0.469886125151
0.488845348316
0.496648301435
0.500626439555
0.503629711426
0.50636422404
0.509078444745
0.511737925542
0.514359045195
0.516877737538
0.519426923699
0.521948378628
0.524382014078
0.526855251856
0.529310071437
0.531745339785
0.534101629229
0.536500901478
0.538876865776
0.541163320851
0.543483487784
0.545767841685
0.54801166592
0.550139167719
0.552287990702
0.554364919394
0.556374964781
0.558229812086
0.560067948397
0.561809115545
0.563435832836
0.564943384563
0.566326312011
0.56750644166
0.568614297569
0.56957475757
0.570383594181
0.571035470286
0.571529426851
0.571865599901
0.57210658311
9.99867023301e-266
9.99867023301e-266
9.99867023302e-266
9.99867023302e-266
9.99867023302e-266
9.99867023302e-266
9.99867023302e-266
9.99867023303e-266
9.99867023303e-266
9.99867023303e-266
9.99867023303e-266
9.99867023303e-266
9.99867023304e-266
9.99867023304e-266
9.99867023304e-266
9.99867023304e-266
9.99867023305e-266
9.99867023355e-266
9.99867026332e-266
9.9986720501e-266
9.9987753757e-266
1.0004773404e-265
1.0153186149e-265
3.00930690218e-99
3.62612267802e-18
0.000219626007773
0.162463073657
0.338912378573
0.427934939155
0.466053344551
0.481741689059
0.488538178276
0.492461852254
0.495618522433
0.498664682187
0.501627333695
0.504468261592
0.507322717982
0.510126646209
0.512834385856
0.515557592813
0.51825012654
0.520843043426
0.52347707571
0.526076711119
0.528656553119
0.531142871616
0.533660075008
0.536153362222
0.538535697711
0.540951058969
0.543311698532
0.545621540108
0.547799941375
0.549972896568
0.552062473927
0.55406923768
0.555905563274
0.557707963928
0.559395541503
0.560959308626
0.562387661376
0.563603098629
0.564746283514
0.56573654412
0.566569965966
0.567242937624
0.567753683846
0.568101467347
0.568345894627
9.99867023293e-266
9.99867023293e-266
9.99867023293e-266
9.99867023294e-266
9.99867023294e-266
9.99867023294e-266
9.99867023294e-266
9.99867023294e-266
9.99867023295e-266
9.99867023295e-266
9.99867023295e-266
9.99867023295e-266
9.99867023295e-266
9.99867023296e-266
9.99867023296e-266
9.99867023296e-266
9.99867023298e-266
9.99867023429e-266
9.99867031187e-266
9.99867494518e-266
9.99894158855e-266
1.00145553641e-265
1.02985866305e-265
2.49819978681e-63
1.26822059239e-09
0.00238324796391
0.206047235366
0.35752838051
0.430150665598
0.461009950019
0.473955123196
0.479969503504
0.483922827651
0.48739172015
0.490703983499
0.493869094149
0.497018566363
0.500043024839
0.503072955611
0.506056601833
0.508927839227
0.511817866076
0.514673520176
0.517423287456
0.520202932633
0.522941003588
0.525577930142
0.52824763493
0.530874585089
0.533386356416
0.535924139615
0.538399574537
0.540818319707
0.543093148153
0.545366521544
0.547549462768
0.54963412603
0.551539334292
0.553410892288
0.555153734631
0.556767823568
0.558164772001
0.559500656215
0.560676502391
0.561695105508
0.562553315021
0.563246456676
0.563774090144
0.564134633685
0.564382948746
9.99867023286e-266
9.99867023286e-266
9.99867023286e-266
9.99867023286e-266
9.99867023286e-266
9.99867023287e-266
9.99867023287e-266
9.99867023287e-266
9.99867023287e-266
9.99867023287e-266
9.99867023288e-266
9.99867023288e-266
9.99867023288e-266
9.99867023288e-266
9.99867023288e-266
9.99867023289e-266
9.99867023295e-266
9.9986702367e-266
9.99867045881e-266
9.99868358717e-266
9.99942381668e-266
1.00413368938e-265
1.06229505758e-265
7.84522820073e-41
8.89646040606e-07
0.0362404216594
0.245096257581
0.371582973222
0.430257466659
0.455056820519
0.465688888973
0.47115134985
0.475206082138
0.478926621432
0.482457526268
0.48595317235
0.489296168894
0.492626348351
0.495820463446
0.499021726553
0.502163046916
0.505189068632
0.508235708545
0.511227941701
0.514117600891
0.517031721254
0.519826357878
0.522646189387
0.525410012068
0.528051474592
0.530710042081
0.533300076849
0.535821278112
0.538197939637
0.540559277655
0.542825492919
0.544915732225
0.546969771059
0.548904615289
0.550710183665
0.552379746691
0.553824330442
0.555195815222
0.556406447547
0.55745517912
0.558337074676
0.559052021229
0.559596838189
0.559970201621
0.560222914799
9.99867023279e-266
9.99867023279e-266
9.9986702328e-266
9.9986702328e-266
9.9986702328e-266
9.9986702328e-266
9.9986702328e-266
9.9986702328e-266
9.99867023281e-266
9.99867023281e-266
9.99867023281e-266
9.99867023281e-266
9.99867023281e-266
9.99867023281e-266
9.99867023282e-266
9.99867023282e-266
9.998670233e-266
9.99867024314e-266
9.9986708268e-266
9.99870456629e-266
1.00006366564e-265
1.00926734071e-265
5.53872844053e-100
1.58314178078e-23
1.83233965427e-05
0.0890794662331
0.277763601837
0.381621084787
0.428129955172
0.447960018489
0.456891317924
0.46206489549
0.466293797509
0.470218487907
0.474077684958
0.477773750683
0.481437536169
0.48495120809
0.488454322049
0.491813244854
0.495164699634
0.498394000227
0.501626181648
0.504806002561
0.507863301463
0.510937499598
0.513884099761
0.51685593356
0.519765877456
0.522544278027
0.525325173292
0.528033885568
0.530585789631
0.533128690941
0.535575363103
0.537924724997
0.540089955042
0.542210663092
0.544203179178
0.546063025616
0.54770318949
0.549273171708
0.550685304021
0.551937121125
0.553016693134
0.553925136394
0.554661598571
0.555139811214
0.555528096551
0.555783579198
9.99867023273e-266
9.99867023273e-266
9.99867023274e-266
9.99867023274e-266
9.99867023274e-266
9.99867023274e-266
9.99867023274e-266
9.99867023274e-266
9.99867023275e-266
9.99867023275e-266
9.99867023275e-266
9.99867023275e-266
9.99867023275e-266
9.99867023275e-266
9.99867023276e-266
9.99867023277e-266
9.99867023339e-266
9.99867027035e-266
9.99867245034e-266
9.99879623883e-266
1.00058253796e-265
1.01720297096e-265
3.3039907464e-99
7.27066627102e-18
0.000195352503179
0.143504658033
0.305317145802
0.387884018579
0.424187267951
0.440008968928
0.447631014496
0.452697140785
0.457166497152
0.461371657978
0.465501499942
0.469454665667
0.473371533256
0.47712636872
0.480858839666
0.484435555419
0.488011630845
0.491440358039
0.49487876725
0.498235577901
0.501465179731
0.504700985637
0.507801461454
0.510913032725
0.513961142354
0.516859516413
0.519765576
0.522586966535
0.525246749387
0.527890094195
0.530430769034
0.532779700498
0.535095890607
0.537282821148
0.539336542926
0.541164397161
0.54293053674
0.544544838558
0.545992950204
0.547274355474
0.548384199396
0.54923276172
0.549989550951
0.55056523575
0.550963691166
0.551223077929
9.99867023268e-266
9.99867023268e-266
9.99867023268e-266
9.99867023268e-266
9.99867023269e-266
9.99867023269e-266
9.99867023269e-266
9.99867023269e-266
9.99867023269e-266
9.99867023269e-266
9.9986702327e-266
9.9986702327e-266
9.9986702327e-266
9.9986702327e-266
9.9986702327e-266
9.99867023274e-266
9.99867023489e-266
9.99867036168e-266
9.99867780301e-266
9.99909448694e-266
1.00225366414e-265
1.04079965373e-265
3.09095809022e-48
2.59884348553e-08
0.00406421838238
0.193259936463
0.326509958064
0.390303128494
0.418516370688
0.431196177056
0.438054038996
0.443235705369
0.447930363345
0.452486553311
0.456829827983
0.461110014826
0.46520934464
0.469200364349
0.473154830678
0.476956413182
0.48073258389
0.484430822539
0.487983196418
0.491526026754
0.494934025777
0.498340252784
0.501595423221
0.504845069884
0.50802002701
0.511046144236
0.514066083614
0.516913156048
0.519753759374
0.522486827962
0.525028769726
0.52754321863
0.529932109578
0.532187336796
0.534216554879
0.536181828687
0.53798935284
0.53963716625
0.541121595356
0.542349649099
0.543487817095
0.544444752084
0.545216789778
0.545808753832
0.546218503582
0.546481919651
9.99867023263e-266
9.99867023263e-266
9.99867023263e-266
9.99867023263e-266
9.99867023264e-266
9.99867023264e-266
9.99867023264e-266
9.99867023264e-266
9.99867023264e-266
9.99867023264e-266
9.99867023265e-266
9.99867023265e-266
9.99867023265e-266
9.99867023265e-266
9.99867023265e-266
9.99867023279e-266
9.99867024069e-266
9.99867069507e-266
9.99869659776e-266
1.00001035265e-265
1.0075160244e-265
1.09925324076e-265
1.02409838179e-26
5.00635856527e-06
0.0535244105201
0.23555873902
0.341448919083
0.390274619804
0.411617902586
0.421968688194
0.428358794228
0.433640928903
0.438670434925
0.443454270619
0.448086686856
0.452639931102
0.456987877517
0.461274174486
0.465389731962
0.469399004356
0.473381667512
0.477203496965
0.481002349947
0.484648314168
0.488288076921
0.491851208252
0.49525193568
0.498655474838
0.501890113487
0.505115868145
0.50824295774
0.511193163108
0.514123107941
0.516942310335
0.519566082906
0.522149162726
0.524603195706
0.52683297914
0.529004400948
0.531018814889
0.53287409581
0.534473616305
0.535994896605
0.537339692474
0.538503623685
0.539482823281
0.540276802684
0.540885974774
0.54122058591
0.541490776111
9.99867023258e-266
9.99867023259e-266
9.99867023259e-266
9.99867023259e-266
9.99867023259e-266
9.99867023259e-266
9.99867023259e-266
9.9986702326e-266
9.9986702326e-266
9.9986702326e-266
9.9986702326e-266
9.9986702326e-266
9.9986702326e-266
9.9986702326e-266
9.99867023262e-266
9.9986702332e-266
9.9986702675e-266
9.99867227695e-266
9.99878561667e-266
1.00051265095e-265
1.01656792725e-265
2.80623626545e-99
8.09319902815e-19
0.000106695511224
0.114970264967
0.269611945738
0.350542910079
0.387023482217
0.403618897838
0.412384566344
0.418527940616
0.424095881386
0.429344303755
0.434407908609
0.439303690891
0.444111775028
0.448712179965
0.453241392553
0.457588227975
0.461806773376
0.465982300926
0.469988859128
0.473966809407
0.477777839464
0.481576726123
0.485209565449
0.488829838978
0.492271004302
0.495709823365
0.499053577354
0.502213627262
0.505350168522
0.50837654745
0.511195898373
0.513975485872
0.516625742268
0.519052438503
0.52142528329
0.523641280698
0.525609453819
0.52750522551
0.529227600927
0.53077626371
0.532147907732
0.533239465437
0.534243469157
0.535059345283
0.535684837123
0.536123918115
0.536397700767
9.99867023254e-266
9.99867023254e-266
9.99867023255e-266
9.99867023255e-266
9.99867023255e-266
9.99867023255e-266
9.99867023255e-266
9.99867023255e-266
9.99867023256e-266
9.99867023256e-266
9.99867023256e-266
9.99867023256e-266
9.99867023256e-266
9.99867023256e-266
9.99867023261e-266
9.99867023521e-266
9.99867038577e-266
9.99867906914e-266
9.99915924589e-266
1.00257670946e-265
1.04533082923e-265
2.22734339535e-47
2.99903017055e-08
0.00265855406906