/*--------------------------------*- C++ -*----------------------------------*\
| =========                 |                                                 |
| \\      /  F ield         | foam-extend: Open Source CFD                    |
|  \\    /   O peration     | Version:     4.1                                |
|   \\  /    A nd           | Web:         http://www.foam-extend.org         |
|    \\/     M anipulation  |                                                 |
\*---------------------------------------------------------------------------*/
FoamFile
{
    version     2.0;
    format      ascii;
    class       volScalarField;
    location    "0.0004";
    object      O;
}
// * * * * * * * * * * * * * * * * * * * * * * * * * * * * * * * * * * * * * //

dimensions      [0 0 0 0 0 0 0];

internalField   nonuniform List<scalar> 
8400
(
7.23199834092e-54
7.23199834095e-54
7.23199834099e-54
7.23199834102e-54
7.23199834106e-54
7.23199834109e-54
7.23199834112e-54
7.23199834115e-54
7.23199834118e-54
7.23199834121e-54
7.23199834124e-54
7.23199834127e-54
7.2319983413e-54
7.23199834133e-54
7.23199834136e-54
7.23199834138e-54
7.23199834141e-54
7.23199834144e-54
7.23199834146e-54
7.23199834149e-54
7.23199834152e-54
7.23199834186e-54
7.23199836106e-54
7.2319995236e-54
7.23206700328e-54
7.23606458324e-54
7.3238341219e-54
1.06825168626e-18
0.191171420523
0.232123192196
0.187801131506
0.139032548762
0.109051702361
0.0951325718001
0.0894991200189
0.0875067390072
0.0867987016505
0.0864347379173
0.0861515071708
0.0858885437171
0.085652969577
0.0853912760452
0.0851259390908
0.0848539777876
0.0845722004556
0.0842777647568
0.0839691608436
0.0836456059184
0.083329246367
0.0829727210339
0.0825997835479
0.0822096911602
0.0818052105175
0.081384889409
0.0809516623577
0.0805093763572
0.0800842545511
0.0796337831322
0.0791854314641
0.0787435434778
0.078315811866
0.0779070968525
0.0775233601946
0.0771697353864
0.0768799290367
0.0766074294486
0.0763829040143
0.0762107890715
0.0760944800273
0.0759208759404
7.23199833298e-54
7.231998333e-54
7.23199833301e-54
7.23199833302e-54
7.23199833304e-54
7.23199833305e-54
7.23199833306e-54
7.23199833307e-54
7.23199833309e-54
7.2319983331e-54
7.23199833311e-54
7.23199833312e-54
7.23199833314e-54
7.23199833315e-54
7.23199833316e-54
7.23199833317e-54
7.23199833318e-54
7.23199833319e-54
7.2319983332e-54
7.23199833322e-54
7.23199833326e-54
7.2319983351e-54
7.23199844627e-54
7.2320051518e-54
7.23238899165e-54
7.25477703388e-54
7.55799991806e-54
8.79226658414e-05
0.231378103844
0.218445058389
0.164286708344
0.122415458259
0.0999731175586
0.0904826245389
0.0869427499768
0.0858346220316
0.0854352948597
0.0851551032759
0.0849181810811
0.0846756936075
0.0844226340793
0.0841578852555
0.083879334994
0.08358715083
0.083281341697
0.0829600533082
0.0826215980412
0.0822671437605
0.0818965961779
0.0815089169115
0.0811064985875
0.0807109975539
0.0802804851678
0.0798386379774
0.0793866254906
0.0789294359727
0.0784706980453
0.0780125539804
0.077562500959
0.0771238855551
0.0767015231158
0.076301486341
0.0759300847577
0.0756140443254
0.0753125246365
0.0750556174
0.0748455963692
0.0746846737179
0.0745744715082
0.074449360787
7.23199832982e-54
7.23199832983e-54
7.23199832984e-54
7.23199832984e-54
7.23199832985e-54
7.23199832986e-54
7.23199832987e-54
7.23199832988e-54
7.23199832988e-54
7.23199832989e-54
7.2319983299e-54
7.23199832991e-54
7.23199832991e-54
7.23199832992e-54
7.23199832993e-54
7.23199832994e-54
7.23199832994e-54
7.23199832995e-54
7.23199832996e-54
7.23199832996e-54
7.23199833012e-54
7.2319983397e-54
7.23199893148e-54
7.23203421404e-54
7.23414101712e-54
7.29609399553e-54
5.06324143138e-19
0.100358455752
0.231988131538
0.195482060231
0.143618476413
0.110245587704
0.0943097959904
0.0879718689841
0.0858273888707
0.0851669491962
0.0848604378652
0.08463992301
0.0844214117211
0.0841929810873
0.083950984837
0.0836946818115
0.0834238521189
0.0831374950729
0.0828337552716
0.0825124275221
0.0821747541971
0.0818191043195
0.0814456459806
0.0810572740283
0.0806536777699
0.0802356260899
0.0798029156978
0.0793833019553
0.078934157829
0.0784826777167
0.0780308745801
0.0775848423002
0.0771476543312
0.0767232459646
0.0763170927129
0.0759358169674
0.0755822226419
0.0752618716168
0.0749794857336
0.0747611048616
0.0745631761169
0.0744131138497
0.0743115047692
0.074204335596
7.23199832817e-54
7.23199832818e-54
7.23199832818e-54
7.23199832819e-54
7.23199832819e-54
7.2319983282e-54
7.23199832821e-54
7.23199832821e-54
7.23199832822e-54
7.23199832822e-54
7.23199832823e-54
7.23199832823e-54
7.23199832824e-54
7.23199832824e-54
7.23199832825e-54
7.23199832825e-54
7.23199832826e-54
7.23199832826e-54
7.23199832827e-54
7.23199832828e-54
7.23199832898e-54
7.23199837195e-54
7.23200103725e-54
7.23215762409e-54
7.24153301863e-54
7.40427223164e-54
6.88147686115e-11
0.230338312802
0.228863203539
0.175944038877
0.129472144047
0.103121184743
0.0914580637777
0.0870778551182
0.0856728876854
0.0852265681725
0.0849413489489
0.0847097011101
0.0844748752803
0.0842301044234
0.0839728569258
0.0837021056527
0.0834175406694
0.0831181698082
0.0828016146505
0.082468175725
0.0821187037211
0.0817514961654
0.0813673708702
0.0809694396037
0.0805565371102
0.0801515107678
0.079713943428
0.0792669534112
0.0788164727047
0.0783642907759
0.0779143469599
0.0774719399828
0.0770400746969
0.0766225494242
0.0762249240998
0.075876543492
0.0755328722987
0.0752226293327
0.0749503614927
0.0747184047307
0.0745291920077
0.0743853373605
0.0742881001088
0.0741900156668
7.23199832719e-54
7.23199832719e-54
7.2319983272e-54
7.2319983272e-54
7.23199832721e-54
7.23199832721e-54
7.23199832722e-54
7.23199832722e-54
7.23199832722e-54
7.23199832723e-54
7.23199832723e-54
7.23199832724e-54
7.23199832724e-54
7.23199832724e-54
7.23199832725e-54
7.23199832725e-54
7.23199832726e-54
7.23199832726e-54
7.23199832726e-54
7.2319983273e-54
7.23199832948e-54
7.23199846137e-54
7.23200642992e-54
7.23246361953e-54
7.25908487656e-54
7.60637656285e-54
0.000481819767473
0.231491188568
0.215664791793
0.161391720335
0.12054366082
0.0993164328446
0.090340924368
0.0870971810231
0.0860933635734
0.0857116094168
0.0854439535921
0.0851677510196
0.0849085416734
0.0846383005011
0.0843559241112
0.0840603565927
0.0837497431427
0.0834245956845
0.0830844986294
0.0827273494842
0.0823540080499
0.0819868182805
0.0815826310766
0.08116464497
0.0807334784801
0.0802921238298
0.0798413464058
0.0793826593473
0.078920658008
0.0784600658365
0.0780033802998
0.0775564880569
0.0771437011712
0.0767241512892
0.0763278438139
0.0759578141573
0.0756176326538
0.0753106743434
0.0750415396163
0.0748130318142
0.0746273166872
0.0744858483994
0.074390328111
0.0742967766324
7.23199832655e-54
7.23199832656e-54
7.23199832656e-54
7.23199832656e-54
7.23199832657e-54
7.23199832657e-54
7.23199832657e-54
7.23199832658e-54
7.23199832658e-54
7.23199832658e-54
7.23199832659e-54
7.23199832659e-54
7.23199832659e-54
7.2319983266e-54
7.2319983266e-54
7.2319983266e-54
7.23199832661e-54
7.23199832661e-54
7.23199832661e-54
7.23199832669e-54
7.23199833148e-54
7.23199862951e-54
7.23201709022e-54
7.2331336517e-54
7.28116369093e-54
1.9199117536e-19
0.0429719598199
0.231837134844
0.203129333469
0.150529381969
0.114944794146
0.0973230171161
0.0902174596208
0.087721594468
0.0869164451119
0.0865410188069
0.0862437634535
0.0859549437293
0.0856598065355
0.0853549969119
0.0850382478912
0.0847087490244
0.0843666681569
0.0840103406473
0.0836381216172
0.0832518439964
0.08285087076
0.08243518465
0.0820036286291
0.0815605405299
0.0811061166529
0.0806418744433
0.0801714985624
0.0796954657814
0.0792388752507
0.0787635171983
0.0782948443358
0.0778363987499
0.0773934135107
0.0769668639903
0.0765640748
0.0761894638668
0.0758467896389
0.0755379996641
0.0752897876257
0.0750587093497
0.0748718215282
0.0747301419005
0.0746348319154
0.0745444592574
7.23199832611e-54
7.23199832611e-54
7.23199832612e-54
7.23199832612e-54
7.23199832612e-54
7.23199832613e-54
7.23199832613e-54
7.23199832613e-54
7.23199832613e-54
7.23199832614e-54
7.23199832614e-54
7.23199832614e-54
7.23199832615e-54
7.23199832615e-54
7.23199832615e-54
7.23199832615e-54
7.23199832616e-54
7.23199832616e-54
7.23199832616e-54
7.23199832638e-54
7.23199833947e-54
7.23199914572e-54
7.2320468864e-54
7.23489640071e-54
7.30778023542e-54
7.30736369828e-19
0.140597633589
0.232059577494
0.192191676526
0.142363626501
0.111145263499
0.0965526297387
0.0907227400963
0.0887317132553
0.0880257796483
0.0876330496816
0.0872949114024
0.0869631460702
0.0866259559082
0.0862797334326
0.085925168154
0.0855591008164
0.0851807199713
0.0847875229005
0.0843814483981
0.0839617889
0.0835269187086
0.0830798620684
0.082619863756
0.0821472434956
0.0816639586928
0.0811973128713
0.0807006627837
0.0802034051655
0.0797045989373
0.0792111309788
0.0787264570305
0.0782533943482
0.0777961178403
0.0773595999932
0.076970154488
0.0765859829801
0.0762352639469
0.0759221401529
0.075647732791
0.0754136229051
0.0752234045369
0.0750792526891
0.0749826914284
0.0748934285549
7.23199832579e-54
7.23199832579e-54
7.23199832579e-54
7.2319983258e-54
7.2319983258e-54
7.2319983258e-54
7.2319983258e-54
7.23199832581e-54
7.23199832581e-54
7.23199832581e-54
7.23199832581e-54
7.23199832582e-54
7.23199832582e-54
7.23199832582e-54
7.23199832582e-54
7.23199832583e-54
7.23199832583e-54
7.23199832583e-54
7.23199832584e-54
7.2319983263e-54
7.23199835444e-54
7.23200008185e-54
7.23210202795e-54
7.23829682125e-54
7.36061486306e-54
1.05742362706e-11
0.228044601992
0.231785167592
0.182570930062
0.136057058849
0.108891602659
0.096432993241
0.0916281090774
0.0900059653803
0.0893573395115
0.0889404242872
0.0885587324093
0.0881806749902
0.0877982933321
0.0874074374172
0.0870093485873
0.0866008060056
0.0861805721856
0.0857498926515
0.0853067259388
0.0848499499023
0.0843803914881
0.0838984384447
0.0834267009448
0.0829227722252
0.0824093387723
0.0818914636813
0.0813701943608
0.0808467463172
0.0803263469546
0.0798114628571
0.0793295211107
0.0788388683688
0.0783666859136
0.0779149500265
0.0774908811152
0.0770975673894
0.0767382437377
0.0764154058684
0.0761336169069
0.0758953364488
0.0757257078317
0.0755779727262
0.0754790880951
0.0753891051021
7.23199832554e-54
7.23199832555e-54
7.23199832555e-54
7.23199832555e-54
7.23199832555e-54
7.23199832556e-54
7.23199832556e-54
7.23199832556e-54
7.23199832556e-54
7.23199832556e-54
7.23199832557e-54
7.23199832557e-54
7.23199832557e-54
7.23199832557e-54
7.23199832557e-54
7.23199832558e-54
7.23199832558e-54
7.23199832558e-54
7.2319983256e-54
7.23199832661e-54
7.23199838849e-54
7.23200217054e-54
7.23222278909e-54
7.24540246207e-54
7.45454864107e-54
1.10751469115e-07
0.230901780126
0.226145127997
0.174141389895
0.131230109782
0.107348340682
0.0968655405466
0.0928750214392
0.0915015051197
0.0908780399097
0.090429334709
0.0900028148955
0.0895777110022
0.089147710588
0.0887105166668
0.0882656536941
0.0878131021514
0.0873491363733
0.0868764180295
0.0863909691892
0.0859182181724
0.0854106142232
0.0848919419356
0.0843637548193
0.083825665062
0.0832826221796
0.0827346835926
0.0821832410847
0.0816568640971
0.0811092227508
0.0805718368569
0.0800468889649
0.0795361035871
0.0790464199222
0.0785802219578
0.0781655046084
0.0777593768143
0.0773881811322
0.0770565478582
0.0767677049554
0.0765234725927
0.0763257291114
0.076175620138
0.0760738920945
0.0759824969764
7.23199832535e-54
7.23199832535e-54
7.23199832536e-54
7.23199832536e-54
7.23199832536e-54
7.23199832536e-54
7.23199832536e-54
7.23199832537e-54
7.23199832537e-54
7.23199832537e-54
7.23199832537e-54
7.23199832537e-54
7.23199832538e-54
7.23199832538e-54
7.23199832538e-54
7.23199832538e-54
7.23199832538e-54
7.23199832539e-54
7.23199832542e-54
7.23199832743e-54
7.23199844937e-54
7.23200580779e-54
7.23242777459e-54
7.2569767529e-54
7.58569424615e-54
0.000242844839387
0.231411276789
0.218586086044
0.166731629518
0.127548618343
0.106683670096
0.0977601805298
0.0943954221451
0.0931775361322
0.0925740218767
0.0920848997864
0.0916121436124
0.0911362657564
0.0906570945428
0.0901705989628
0.0896781150031
0.0891782490501
0.0886910392321
0.088172842471
0.0876449273925
0.0871079575981
0.0865604576198
0.0860048917502
0.0854403811977
0.0848669600611
0.0843128495876
0.083731653586
0.0831523615507
0.0825746594804
0.0820021307819
0.0814393314446
0.0809142869918
0.0803814637503
0.0798727412254
0.0793904885379
0.0789367926623
0.0785176614914
0.0781359000313
0.0777945881931
0.0774957400943
0.0772674936241
0.0770634997274
0.076909631813
0.0768054161497
0.0767142931662
7.2319983252e-54
7.2319983252e-54
7.2319983252e-54
7.2319983252e-54
7.23199832521e-54
7.23199832521e-54
7.23199832521e-54
7.23199832521e-54
7.23199832521e-54
7.23199832521e-54
7.23199832522e-54
7.23199832522e-54
7.23199832522e-54
7.23199832522e-54
7.23199832522e-54
7.23199832522e-54
7.23199832523e-54
7.23199832523e-54
7.23199832529e-54
7.23199832892e-54
7.23199854481e-54
7.23201130891e-54
7.23272816465e-54
7.27287768498e-54
2.557889732e-20
0.0147067091186
0.231682138188
0.210483597866
0.160163601984
0.12471122817
0.106633655711
0.0990170439431
0.0961917419762
0.0950757046242
0.0944440583412
0.0939004068366
0.0933728858555
0.0928440234197
0.0923119098418
0.0917967016675
0.0912532120134
0.0907039984181
0.0901481620894
0.0895828993094
0.0890107304183
0.0884311426507
0.0878418649779
0.0872685193943
0.0866636297315
0.0860557314105
0.0854426276247
0.0848304535735
0.0842188565076
0.0836340387291
0.0830351668935
0.0824475744145
0.0818747848693
0.081322747885
0.0807929771518
0.0803156439769
0.0798462372485
0.0794115465405
0.0790169606345
0.0786650522709
0.0783582252696
0.078098900342
0.0778884980511
0.0777291421272
0.0776214903521
0.0775302604176
7.23199832507e-54
7.23199832507e-54
7.23199832507e-54
7.23199832508e-54
7.23199832508e-54
7.23199832508e-54
7.23199832508e-54
7.23199832508e-54
7.23199832508e-54
7.23199832509e-54
7.23199832509e-54
7.23199832509e-54
7.23199832509e-54
7.23199832509e-54
7.23199832509e-54
7.2319983251e-54
7.2319983251e-54
7.2319983251e-54
7.23199832522e-54
7.23199833242e-54
7.23199878193e-54
7.23202605358e-54
7.23365339117e-54
7.29065573078e-54
3.37496331656e-19
0.0674318269677
0.231886862475
0.202620171332
0.154492457665
0.122548866737
0.107160135094
0.100603004086
0.098150903323
0.0971323429676
0.0964655946026
0.0958663692669
0.0952777269649
0.094712925696
0.0941249204188
0.0935337750566
0.0929397550907
0.0923391639953
0.0917333174393
0.0911197706954
0.0905236014289
0.0898958941913
0.0892641179747
0.0886263540079
0.0879827222544
0.0873370353629
0.0867116183103
0.0860639626937
0.0854210087143
0.0847824898482
0.0841559407366
0.0835412788389
0.0829700813084
0.0823934547355
0.0818447524297
0.0813253708594
0.0808383794497
0.0803900631134
0.0800079450828
0.0796438412827
0.0793258450458
0.0790574862831
0.0788409516119
0.078677159846
0.0785667205136
0.0784758192788
7.23199832497e-54
7.23199832497e-54
7.23199832497e-54
7.23199832497e-54
7.23199832497e-54
7.23199832497e-54
7.23199832497e-54
7.23199832498e-54
7.23199832498e-54
7.23199832498e-54
7.23199832498e-54
7.23199832498e-54
7.23199832498e-54
7.23199832499e-54
7.23199832499e-54
7.23199832499e-54
7.23199832499e-54
7.231998325e-54
7.23199832526e-54
7.23199834145e-54
7.23199932749e-54
7.23205696105e-54
7.23544887972e-54
7.31726119508e-54
8.57265197417e-19
0.157460438251
0.232066236884
0.194715917886
0.149255964334
0.121175586472
0.107976082364
0.102480916557
0.100349725375
0.0993575436944
0.0986378751256
0.0979930472278
0.0973388707084
0.096690309899
0.0960431158298
0.0953962654036
0.0947454153897
0.0940923944035
0.0934565324317
0.0927934186717
0.0921257896867
0.0914524305118
0.0907758512599
0.0901174921342
0.0894319681467
0.0887473188277
0.0880608483267
0.0873794647549
0.0867266828299
0.0860577730747
0.0854018770385
0.0847626968176
0.0841399777689
0.0835424442775
0.0829963774196
0.0824586096791
0.0819562640696
0.0814932636396
0.0810721771447
0.0806964265763
0.0803697396045
0.0801189962535
0.0798953617666
0.0797265747047
0.0796128521747
0.0795217865913
7.23199832488e-54
7.23199832488e-54
7.23199832488e-54
7.23199832488e-54
7.23199832488e-54
7.23199832488e-54
7.23199832488e-54
7.23199832489e-54
7.23199832489e-54
7.23199832489e-54
7.23199832489e-54
7.23199832489e-54
7.23199832489e-54
7.23199832489e-54
7.2319983249e-54
7.2319983249e-54
7.2319983249e-54
7.23199832491e-54
7.23199832547e-54
7.23199835923e-54
7.23200040546e-54
7.23211980406e-54
7.23927059975e-54
7.37597079119e-54
2.30853491829e-11
0.228725626167
0.231866831426
0.186822076412
0.144811750282
0.120416705122
0.109144406807
0.104532379777
0.102700320967
0.101737851327
0.10096073366
0.100225938251
0.0995045425569
0.0987900149333
0.0980799803279
0.0973911577512
0.0966839257928
0.0959747268958
0.0952638454831
0.0945502005308
0.0938547531187
0.0931332060069
0.0924105487947
0.0916855187591
0.0909585169983
0.0902565794779
0.0895323764133
0.0888150967743
0.0881056216736
0.0874040144055
0.0867424405841
0.0860755481025
0.0854309711635
0.0848106998319
0.0842191313769
0.0836873066413
0.0831671858898
0.0826884363145
0.0822532749773
0.0818669759453
0.0815313297026
0.0812488175654
0.0810204501483
0.08084601593
0.0807548756327
0.0806345074441
7.2319983248e-54
7.2319983248e-54
7.2319983248e-54
7.2319983248e-54
7.2319983248e-54
7.23199832481e-54
7.23199832481e-54
7.23199832481e-54
7.23199832481e-54
7.23199832481e-54
7.23199832481e-54
7.23199832481e-54
7.23199832481e-54
7.23199832482e-54
7.23199832482e-54
7.23199832482e-54
7.23199832482e-54
7.23199832484e-54
7.23199832611e-54
7.23199840253e-54
7.2320030133e-54
7.23226893326e-54
7.24786536104e-54
7.48743458937e-54
2.14999111843e-07
0.23098960257
0.226556768533
0.179232319018
0.141087120853
0.120121646236
0.110630122899
0.106778591891
0.105168551849
0.104205154772
0.10337200155
0.102571054015
0.101780230697
0.101020602827
0.100243819985
0.0994733287796
0.0987049237607
0.0979372645787
0.0971914389103
0.0964229042404
0.0956547336689
0.0948852240042
0.0941374814988
0.0933677053459
0.0925980922433
0.0918334629096
0.091071285406
0.0903420227958
0.0895971730218
0.0888665648724
0.0881501701819
0.0874810444126
0.0868082944594
0.0861655848576
0.085554876536
0.0849790591754
0.0844680253549
0.0839727085958
0.0835259003283
0.0831286618232
0.0827833676061
0.0824923982116
0.0822571065874
0.0820786249527
0.0819574438686
0.0818643462964
7.23199832473e-54
7.23199832473e-54
7.23199832473e-54
7.23199832474e-54
7.23199832474e-54
7.23199832474e-54
7.23199832474e-54
7.23199832474e-54
7.23199832474e-54
7.23199832474e-54
7.23199832474e-54
7.23199832475e-54
7.23199832475e-54
7.23199832475e-54
7.23199832475e-54
7.23199832475e-54
7.23199832475e-54
7.2319983248e-54
7.23199832762e-54
7.2319984955e-54
7.2320084236e-54
7.23256696654e-54
7.26408217962e-54
7.667281866e-54
0.00185322601455
0.231488470454
0.218566281784
0.171986737287
0.138165861989
0.120369175661
0.112455704607
0.109237679401
0.107766509222
0.10677396636
0.105878275228
0.10500903615
0.104170690011
0.103322614113
0.102482337991
0.10164747578
0.100838131053
0.10001297563
0.099187490903
0.0983657168855
0.0975657354185
0.0967460855733
0.0959268003631
0.0951124466653
0.0943239738464
0.093516217527
0.0927180589257
0.0919267673223
0.0911742362245
0.0904098245484
0.0896664760203
0.088944877181
0.0882727696036
0.0876065561493
0.0869745870378
0.0863793814068
0.0858240138733
0.0853431811499
0.0848831660558
0.084473543057
0.0841180557093
0.083818843697
0.0835771537301
0.0833939319415
0.08326969307
0.0831767814829
7.23199832467e-54
7.23199832467e-54
7.23199832467e-54
7.23199832468e-54
7.23199832468e-54
7.23199832468e-54
7.23199832468e-54
7.23199832468e-54
7.23199832468e-54
7.23199832468e-54
7.23199832468e-54
7.23199832469e-54
7.23199832469e-54
7.23199832469e-54
7.23199832469e-54
7.23199832469e-54
7.23199832469e-54
7.23199832479e-54
7.23199833067e-54
7.23199868531e-54
7.23202007903e-54
7.23328398375e-54
7.28653121943e-54
2.09279824176e-19
0.0417232636894
0.231777731615
0.209927321062
0.165517592162
0.135991455372
0.121101009093
0.114589173465
0.111852167498
0.110469517655
0.109433281296
0.10848869657
0.107548109112
0.106622664031
0.105706393187
0.104821898499
0.103923967235
0.103031867642
0.102167744013
0.101286706176
0.100408662879
0.0995348419776
0.0986865061256
0.0978190931631
0.0969574888933
0.0961254138022
0.0952779074417
0.0944398412315
0.0936134888376
0.0928275688727
0.0920314137938
0.0912591250986
0.0905097009069
0.0898165239671
0.0891272335933
0.0884726996142
0.0878596352716
0.0872902781896
0.086767072908
0.0863200912393
0.0858993307608
0.0855341619303
0.0852265515145
0.0849781483485
0.0847900924715
0.0846622910019
0.0845689481922
7.23199832462e-54
7.23199832462e-54
7.23199832462e-54
7.23199832462e-54
7.23199832463e-54
7.23199832463e-54
7.23199832463e-54
7.23199832463e-54
7.23199832463e-54
7.23199832463e-54
7.23199832463e-54
7.23199832463e-54
7.23199832463e-54
7.23199832464e-54
7.23199832464e-54
7.23199832464e-54
7.23199832464e-54
7.23199832492e-54
7.23199834174e-54
7.23199935082e-54
7.23205770388e-54
7.23544508636e-54
7.31926108478e-54
8.12011532628e-19
0.143429360332
0.232007561393
0.200740928473
0.159881695171
0.134554767926
0.122296839841
0.11695231545
0.11461169144
0.113272191729
0.112197968455
0.111158509944
0.110144536823
0.109167262074
0.108181314834
0.107209105085
0.106265952942
0.105313218882
0.104366854955
0.103451683455
0.102518655793
0.10159364759
0.100672655586
0.0997813282102
0.0988756125123
0.0979752600498
0.0971121865439
0.0962336688445
0.0953720339719
0.0945261463991
0.0937250073272
0.0929226488897
0.0921486685048
0.0914031583389
0.0907194066112
0.0900460666994
0.0894140667283
0.0888270129648
0.0882898369016
0.0878320845531
0.0874006277691
0.0870262423375
0.0867109860293
0.0864562423574
0.086263066058
0.0861315988879
0.0860378009871
7.23199832457e-54
7.23199832458e-54
7.23199832458e-54
7.23199832458e-54
7.23199832458e-54
7.23199832458e-54
7.23199832458e-54
7.23199832458e-54
7.23199832458e-54
7.23199832458e-54
7.23199832459e-54
7.23199832459e-54
7.23199832459e-54
7.23199832459e-54
7.23199832459e-54
7.23199832459e-54
7.2319983246e-54
7.23199832534e-54
7.23199836916e-54
7.23200098582e-54
7.23215157248e-54
7.24096944176e-54
7.40137590936e-54
4.33202313765e-11
0.229436247716
0.231945439902
0.191550444315
0.154908625998
0.133818301363
0.123883763201
0.119522143716
0.117491332062
0.116167127765
0.115003482793
0.11388757709
0.11281729774
0.111746734439
0.110713932315
0.109674720607
0.108646570994
0.107652969892
0.106648855534
0.105651967785
0.104688156209
0.103709372457
0.10273992566
0.101802930693
0.100850797546
0.0999101667336
0.0990071553154
0.0980913355426
0.0971948111652
0.0963154380728
0.0954856777616
0.094653583904
0.0938520684327
0.0930838848501
0.092379405296
0.0916850124343
0.0910365540436
0.0904345704417
0.0899126126548
0.0894122752518
0.0889713237698
0.088588798339
0.0882663116494
0.0880054276026
0.0878069948594
0.0876715879618
0.0875770785168
7.23199832453e-54
7.23199832453e-54
7.23199832454e-54
7.23199832454e-54
7.23199832454e-54
7.23199832454e-54
7.23199832454e-54
7.23199832454e-54
7.23199832454e-54
7.23199832454e-54
7.23199832454e-54
7.23199832454e-54
7.23199832455e-54
7.23199832455e-54
7.23199832455e-54
7.23199832455e-54
7.23199832459e-54
7.2319983267e-54
7.23199845214e-54
7.23200586637e-54
7.23242391049e-54
7.25609429277e-54
7.58456023039e-54
2.50266675095e-05
0.231235613064
0.225384861277
0.182878426255
0.15103712234
0.1337271031
0.1257582222
0.122225220201
0.120415283119
0.119079115267
0.11785060882
0.116678865571
0.115512410858
0.114390600513
0.113266429729
0.112183443667
0.111092215591
0.110016793884
0.108976274957
0.107923498543
0.106885311161
0.105878113971
0.104857842652
0.103875536392
0.102878680378
0.101897736962
0.10095587034
0.100004115796
0.0990735204662
0.0981640455177
0.0973036028374
0.0964458369814
0.0956196034282
0.0948553375848
0.0941018902313
0.0933899454851
0.0927240015588
0.0921066232528
0.0915709085644
0.0910608287153
0.0906097310426
0.0902184645399
0.0898891750393
0.089622016774
0.0894184030927
0.0892791167725
0.0891838742465
7.2319983245e-54
7.2319983245e-54
7.2319983245e-54
7.2319983245e-54
7.2319983245e-54
7.2319983245e-54
7.2319983245e-54
7.2319983245e-54
7.2319983245e-54
7.23199832451e-54
7.23199832451e-54
7.23199832451e-54
7.23199832451e-54
7.23199832451e-54
7.23199832451e-54
7.23199832451e-54
7.23199832461e-54
7.23199833034e-54
7.23199865996e-54
7.23201771432e-54
7.23310886089e-54
7.28508655426e-54
1.41116177777e-19
0.0285601447622
0.231690729832
0.215328091927
0.175257454599
0.148196106878
0.134323849039
0.127986424777
0.125071350301
0.123390574815
0.122018318517
0.120739566628
0.119475630221
0.118258171593
0.117045422809
0.115875229428
0.114703170958
0.113572523269
0.112437770459
0.111338921199
0.110233753572
0.109140636758
0.108085549826
0.107019241377
0.105992967119
0.10495350396
0.10393075226
0.102950086205
0.101964453074
0.100999147331
0.10008622555
0.0991731742933
0.0982908871001
0.0974411169193
0.0966551787199
0.0958828978129
0.0951552217286
0.0944738392305
0.0938718876968
0.0932941216143
0.0927733096198
0.0923109071906
0.0919116480432
0.0915751216225
0.0913021781483
0.0911252248303
0.0909814952715
0.0908862273357
7.23199832446e-54
7.23199832446e-54
7.23199832446e-54
7.23199832447e-54
7.23199832447e-54
7.23199832447e-54
7.23199832447e-54
7.23199832447e-54
7.23199832447e-54
7.23199832447e-54
7.23199832447e-54
7.23199832447e-54
7.23199832447e-54
7.23199832448e-54
7.23199832448e-54
7.23199832448e-54
7.23199832484e-54
7.23199834571e-54
7.23199957685e-54
7.23206948632e-54
7.23603918889e-54
7.32990297299e-54
9.05690200784e-19
0.152601567761
0.231984618176
0.204649609856
0.16853250245
0.146375203925
0.135478215017
0.130467758724
0.128032887509
0.126416367783
0.124988077313
0.123637418013
0.122302494551
0.12101693606
0.119736113278
0.11850160385
0.117266772845
0.116077897969
0.114882291272
0.113730417759
0.112568579888
0.11142735089
0.110323546826
0.109212000273
0.108142205319
0.107063578276
0.106002425071
0.104988682088
0.10396758112
0.102972065891
0.102029620481
0.101089127078
0.100181569568
0.0993387916748
0.0985046467013
0.0977144409345
0.0969698316142
0.0963055570664
0.0956619627353
0.095072360219
0.0945421771773
0.0940722021281
0.0936645067309
0.0933527023463
0.0930742728934
0.0928626730371
0.0927165216986
0.0926206288082
7.23199832443e-54
7.23199832443e-54
7.23199832443e-54
7.23199832444e-54
7.23199832444e-54
7.23199832444e-54
7.23199832444e-54
7.23199832444e-54
7.23199832444e-54
7.23199832444e-54
7.23199832444e-54
7.23199832444e-54
7.23199832444e-54
7.23199832444e-54
7.23199832445e-54
7.23199832447e-54
7.23199832568e-54
7.23199839729e-54
7.23200259977e-54
7.23223792174e-54
7.24547686276e-54
7.46316508102e-54
8.14583028259e-09
0.230451233241
0.231642182997
0.194363809367
0.16315086743
0.145633049356
0.137157111717
0.133195267386
0.131048144269
0.129427496449
0.127952433378
0.126509797541
0.125124831538
0.1237509521
0.122427125757
0.121130663831
0.119838279382
0.118589003697
0.11734075682
0.116112086456
0.114924666341
0.113734464827
0.112583638804
0.111427661313
0.110316073286
0.109199991367
0.108104666989
0.107055461515
0.106003957012
0.10500822499
0.104010513257
0.103046640966
0.10214663735
0.101252774932
0.100400940486
0.0995932667497
0.0988647338368
0.0981561275402
0.0975026122661
0.0969051123227
0.0963659718163
0.0959191094237
0.0955041152199
0.095154963266
0.0948731202756
0.0946571227403
0.0945077573062
0.0944113659162
7.2319983244e-54
7.23199832441e-54
7.23199832441e-54
7.23199832441e-54
7.23199832441e-54
7.23199832441e-54
7.23199832441e-54
7.23199832441e-54
7.23199832441e-54
7.23199832441e-54
7.23199832441e-54
7.23199832441e-54
7.23199832442e-54
7.23199832442e-54
7.23199832442e-54
7.2319983245e-54
7.23199832896e-54
7.23199858557e-54
7.23201321409e-54
7.23280777618e-54
7.27519600711e-54
7.79328132253e-54
0.00694044438565
0.231502218151
0.222122392609
0.185116217842
0.159228529149
0.145595862653
0.139200321164
0.13602177563
0.134058949022
0.132433703674
0.130875887522
0.12938418681
0.127929890534
0.126490391584
0.125105229225
0.123729660883
0.12240098585
0.121098455848
0.119797240985
0.118541060371
0.117285383586
0.116074237936
0.114857711509
0.11366046109
0.112511591223
0.11135586384
0.110252718209
0.109146271732
0.108066977687
0.107045179979
0.10602471792
0.105039381686
0.104117801503
0.103207475416
0.102339754219
0.10154810251
0.100774998329
0.100055062755
0.0993903170897
0.0988162646188
0.0982687129269
0.0977838132055
0.0973634315701
0.0970091930009
0.0967220721698
0.0965013368531
0.0963807733198
0.0962829159253
7.23199832438e-54
7.23199832438e-54
7.23199832438e-54
7.23199832438e-54
7.23199832438e-54
7.23199832438e-54
7.23199832438e-54
7.23199832439e-54
7.23199832439e-54
7.23199832439e-54
7.23199832439e-54
7.23199832439e-54
7.23199832439e-54
7.23199832439e-54
7.2319983244e-54
7.23199832472e-54
7.2319983441e-54
7.23199947893e-54
7.23206348747e-54
7.23564450246e-54
7.3263165679e-54
7.63732111689e-19
0.125148812243
0.231902189463
0.210353825015
0.177268837507
0.156773696746
0.146490400364
0.141558761386
0.138922294261
0.137069923812
0.135382549111
0.133780519219
0.132223782122
0.13070712671
0.129206649558
0.127762142878
0.12632965467
0.124945326424
0.123592333035
0.122243456302
0.120941614021
0.119640858388
0.118387632694
0.117131103207
0.115923070814
0.114712526914
0.11355652153
0.112394271747
0.111258461068
0.11018029087
0.109105466519
0.108063004966
0.107086700954
0.106119278623
0.105193339145
0.104342116215
0.1035068056
0.102724503984
0.102027843344
0.101354012692
0.100740554579
0.100187787701
0.0996973158088
0.0993066308803
0.0989464054942
0.0986537820513
0.0984293928552
0.098272240649
0.0981742870952
7.23199832436e-54
7.23199832436e-54
7.23199832436e-54
7.23199832436e-54
7.23199832436e-54
7.23199832436e-54
7.23199832436e-54
7.23199832436e-54
7.23199832436e-54
7.23199832436e-54
7.23199832436e-54
7.23199832437e-54
7.23199832437e-54
7.23199832437e-54
7.23199832439e-54
7.23199832586e-54
7.23199841089e-54
7.23200331482e-54
7.23227449432e-54
7.24730125909e-54
7.48875486432e-54
6.02115369837e-08
0.230475535404
0.231892774734
0.198960927251
0.171221816934