/*--------------------------------*- C++ -*----------------------------------*\
| =========                 |                                                 |
| \\      /  F ield         | foam-extend: Open Source CFD                    |
|  \\    /   O peration     | Version:     4.1                                |
|   \\  /    A nd           | Web:         http://www.foam-extend.org         |
|    \\/     M anipulation  |                                                 |
\*---------------------------------------------------------------------------*/
FoamFile
{
    version     2.0;
    format      ascii;
    class       volScalarField;
    location    "0.0004";
    object      O2;
}
// * * * * * * * * * * * * * * * * * * * * * * * * * * * * * * * * * * * * * //

dimensions      [0 0 0 0 0 0 0];

internalField   nonuniform List<scalar> 
8400
(
0.232918
0.232918
0.232918
0.232918
0.232918
0.232918
0.232918
0.232918
0.232918
0.232918
0.232918
0.232918
0.232918
0.232918
0.232918
0.232918
0.232918
0.232918
0.232918
0.232918
0.232918
0.232918
0.232918
0.232918
0.232918
0.232918
0.232918
0.232917364617
0.0298662233785
4.45719749009e-06
1.34862608839e-07
6.94010862762e-08
4.93397087886e-08
4.30824956871e-08
4.09829704245e-08
4.0101244866e-08
3.95989962036e-08
3.92051905528e-08
3.88415331036e-08
3.8493539922e-08
3.8177676788e-08
3.78360110773e-08
3.74915398337e-08
3.71433321559e-08
3.67862115132e-08
3.64184981985e-08
3.60371770343e-08
3.56440323292e-08
3.52608297312e-08
3.48380002654e-08
3.43991950554e-08
3.39445385376e-08
3.3479840522e-08
3.30025590933e-08
3.25163407988e-08
3.20258793346e-08
3.1559147756e-08
3.10711386071e-08
3.05905504112e-08
3.01225261126e-08
2.96753161887e-08
2.92534243388e-08
2.88610789471e-08
2.85035957457e-08
2.82129036503e-08
2.79427990902e-08
2.77225336035e-08
2.75547531379e-08
2.74418137727e-08
2.73380482679e-08
0.232918
0.232918
0.232918
0.232918
0.232918
0.232918
0.232918
0.232918
0.232918
0.232918
0.232918
0.232918
0.232918
0.232918
0.232918
0.232918
0.232918
0.232918
0.232918
0.232918
0.232918
0.232918
0.232918
0.232918
0.232918
0.232918
0.232918
0.231761152563
3.57492775204e-05
3.00274537216e-07
9.42420069978e-08
5.62622105515e-08
4.38546574863e-08
4.02131203311e-08
3.89860253862e-08
3.85313618859e-08
3.82723163762e-08
3.8004876897e-08
3.77582451769e-08
3.74974272878e-08
3.72237895026e-08
3.69337005252e-08
3.66280303201e-08
3.63044885589e-08
3.59668031003e-08
3.56103119524e-08
3.5235452799e-08
3.48434576914e-08
3.44336997472e-08
3.40065029882e-08
3.35645486206e-08
3.3130972806e-08
3.26623271523e-08
3.21854071992e-08
3.1700912546e-08
3.12143738332e-08
3.07300321018e-08
3.02506748208e-08
2.9784967738e-08
2.93355858911e-08
2.89066651874e-08
2.8503560353e-08
2.8133743457e-08
2.78209548265e-08
2.75254332299e-08
2.72753537581e-08
2.70720943653e-08
2.69171880618e-08
2.68133282776e-08
2.67408005843e-08
0.232918
0.232918
0.232918
0.232918
0.232918
0.232918
0.232918
0.232918
0.232918
0.232918
0.232918
0.232918
0.232918
0.232918
0.232918
0.232918
0.232918
0.232918
0.232918
0.232918
0.232918
0.232918
0.232918
0.232918
0.232918
0.232918
0.232917703056
0.118240754953
8.38005107874e-06
1.54413669186e-07
7.2160357077e-08
4.86520475006e-08
4.11882943578e-08
3.8957738255e-08
3.82060218831e-08
3.78945082726e-08
3.76610181172e-08
3.74538780078e-08
3.72349515894e-08
3.69984259855e-08
3.67443784837e-08
3.64707809122e-08
3.61791884495e-08
3.58677015693e-08
3.55360275974e-08
3.51825982862e-08
3.48121499012e-08
3.44207754992e-08
3.40096510513e-08
3.35837505419e-08
3.31420575639e-08
3.2686429164e-08
3.2218770729e-08
3.17682967266e-08
3.12901215857e-08
3.08122943656e-08
3.03377972706e-08
2.98741288466e-08
2.94242052494e-08
2.89913293588e-08
2.85805061929e-08
2.81988634602e-08
2.78480963798e-08
2.7531723612e-08
2.72566380648e-08
2.70437999587e-08
2.68536699707e-08
2.67099020732e-08
2.6613153579e-08
2.65475483766e-08
0.232918
0.232918
0.232918
0.232918
0.232918
0.232918
0.232918
0.232918
0.232918
0.232918
0.232918
0.232918
0.232918
0.232918
0.232918
0.232918
0.232918
0.232918
0.232918
0.232918
0.232918
0.232918
0.232918
0.232918
0.232918
0.232918
0.23291193755
0.000154293716072
7.14662988266e-07
1.107696962e-07
6.07780704476e-08
4.50406842933e-08
4.02448295596e-08
3.87838955751e-08
3.82449023732e-08
3.79986555462e-08
3.7748411964e-08
3.75183696165e-08
3.72761681195e-08
3.70179113359e-08
3.6742913137e-08
3.64496914069e-08
3.61391601352e-08
3.58097054085e-08
3.54604792269e-08
3.50905135307e-08
3.47037340829e-08
3.42969985505e-08
3.38715294866e-08
3.34326827142e-08
3.2979598865e-08
3.25368162378e-08
3.2062498282e-08
3.15823637854e-08
3.11020000149e-08
3.06235102958e-08
3.01513011062e-08
2.96911297202e-08
2.9247297243e-08
2.88221477964e-08
2.84207997829e-08
2.80709976461e-08
2.77305262343e-08
2.74243442336e-08
2.71591174443e-08
2.69336218928e-08
2.67513900606e-08
2.66135329678e-08
2.65207800188e-08
2.64592087949e-08
0.232918
0.232918
0.232918
0.232918
0.232918
0.232918
0.232918
0.232918
0.232918
0.232918
0.232918
0.232918
0.232918
0.232918
0.232918
0.232918
0.232918
0.232918
0.232918
0.232918
0.232918
0.232918
0.232918
0.232918
0.232918
0.232918
0.230013714117
2.87003012808e-05
2.66892873679e-07
9.08268911095e-08
5.51253829753e-08
4.38056985059e-08
4.03900346879e-08
3.92661547758e-08
3.8827545182e-08
3.85591137513e-08
3.83034576177e-08
3.80109883593e-08
3.77328349342e-08
3.74376145451e-08
3.71272071308e-08
3.67983255342e-08
3.64515909338e-08
3.60869744692e-08
3.57046381743e-08
3.53036592209e-08
3.48845254291e-08
3.44730158739e-08
3.40224978815e-08
3.35573665413e-08
3.30796340181e-08
3.25943127931e-08
3.21032891685e-08
3.1608067578e-08
3.11137498479e-08
3.06249866414e-08
3.01440996658e-08
2.96792628453e-08
2.92531856457e-08
2.88254279952e-08
2.8424318563e-08
2.80540428512e-08
2.77155829899e-08
2.74127579057e-08
2.7149259311e-08
2.69271878561e-08
2.67470145183e-08
2.6611381775e-08
2.65201928675e-08
2.64605844248e-08
0.232918
0.232918
0.232918
0.232918
0.232918
0.232918
0.232918
0.232918
0.232918
0.232918
0.232918
0.232918
0.232918
0.232918
0.232918
0.232918
0.232918
0.232918
0.232918
0.232918
0.232918
0.232918
0.232918
0.232918
0.232918
0.232917888341
0.178077468111
1.28762920015e-05
1.83153621184e-07
7.95371491825e-08
5.24412784892e-08
4.37269916553e-08
4.11878348869e-08
4.02711699752e-08
3.98388985272e-08
3.95171901127e-08
3.92045655789e-08
3.88861479744e-08
3.85544494084e-08
3.82096162091e-08
3.78486785191e-08
3.74711657267e-08
3.70791435433e-08
3.66695195031e-08
3.62423132954e-08
3.5800232948e-08
3.53421243086e-08
3.48687451607e-08
3.43812665582e-08
3.38832126258e-08
3.33752855839e-08
3.28598693196e-08
3.23420795404e-08
3.18243039536e-08
3.1331959729e-08
3.08251658316e-08
3.03293776562e-08
2.98488309646e-08
2.93891373435e-08
2.89524946827e-08
2.85440311526e-08
2.81667731458e-08
2.78247946351e-08
2.75190790194e-08
2.72742287443e-08
2.70489849828e-08
2.68682721283e-08
2.67313833774e-08
2.66393014026e-08
2.65802251536e-08
0.232918
0.232918
0.232918
0.232918
0.232918
0.232918
0.232918
0.232918
0.232918
0.232918
0.232918
0.232918
0.232918
0.232918
0.232918
0.232918
0.232918
0.232918
0.232918
0.232918
0.232918
0.232918
0.232918
0.232918
0.232918
0.232917568777
0.0780422196436
6.55244749015e-06
1.46337709632e-07
7.26610785485e-08
5.10937812454e-08
4.45130334268e-08
4.24558900515e-08
4.16557656644e-08
4.11857915077e-08
4.07974527419e-08
4.04153805675e-08
4.00302591237e-08
3.96352346007e-08
3.92271399313e-08
3.88095998261e-08
3.83772060137e-08
3.79298060833e-08
3.74670775516e-08
3.69898813434e-08
3.64981009092e-08
3.59909223937e-08
3.54736774453e-08
3.49450089876e-08
3.4405929618e-08
3.38595135944e-08
3.33347386412e-08
3.27822626558e-08
3.22346900104e-08
3.16916116563e-08
3.11600185115e-08
3.06431471354e-08
3.01436813283e-08
2.96657536405e-08
2.92149135043e-08
2.88167863518e-08
2.84280257113e-08
2.80746645653e-08
2.77624321097e-08
2.74899081677e-08
2.72605983425e-08
2.70748597115e-08
2.69341455749e-08
2.68405561672e-08
2.67812983375e-08
0.232918
0.232918
0.232918
0.232918
0.232918
0.232918
0.232918
0.232918
0.232918
0.232918
0.232918
0.232918
0.232918
0.232918
0.232918
0.232918
0.232918
0.232918
0.232918
0.232918
0.232918
0.232918
0.232918
0.232918
0.232918
0.232916231608
0.000802671545558
1.98595730294e-06
1.24795672662e-07
6.8239700209e-08
5.10601632174e-08
4.57253618299e-08
4.40590498922e-08
4.33345226251e-08
4.2819691459e-08
4.23616307116e-08
4.19045574565e-08
4.14436729205e-08
4.09753489693e-08
4.04968788122e-08
4.00105157952e-08
3.95119007849e-08
3.9000185864e-08
3.84781298468e-08
3.79438148083e-08
3.73959025678e-08
3.68362349225e-08
3.62666799174e-08
3.57126966255e-08
3.51280095822e-08
3.453767623e-08
3.39477158294e-08
3.33600101104e-08
3.27762126011e-08
3.22018552861e-08
3.1640101614e-08
3.11187614748e-08
3.05953537104e-08
3.00965615381e-08
2.96253897784e-08
2.91876090875e-08
2.87849881119e-08
2.84201687503e-08
2.80959972772e-08
2.78135165171e-08
2.75777525974e-08
2.74090693185e-08
2.72636812536e-08
2.71668526228e-08
2.7105996753e-08
0.232918
0.232918
0.232918
0.232918
0.232918
0.232918
0.232918
0.232918
0.232918
0.232918
0.232918
0.232918
0.232918
0.232918
0.232918
0.232918
0.232918
0.232918
0.232918
0.232918
0.232918
0.232918
0.232918
0.232918
0.232918
0.232853270257
7.71064506047e-05
5.07116597801e-07
1.10810729013e-07
6.56200468045e-08
5.15070230701e-08
4.74024327671e-08
4.60134144864e-08
4.52956383818e-08
4.47164410313e-08
4.41816431586e-08
4.36426525798e-08
4.3100932491e-08
4.25529335164e-08
4.19967040847e-08
4.1432388518e-08
4.0860521811e-08
4.0277860897e-08
3.96877691139e-08
3.90861573182e-08
3.85029873613e-08
3.78832618273e-08
3.72555178251e-08
3.66227103419e-08
3.59848709947e-08
3.53477702891e-08
3.47118058001e-08
3.40795263036e-08
3.34815878615e-08
3.28690613867e-08
3.22745362003e-08
3.1700136655e-08
3.11476120079e-08
3.0624148318e-08
3.01317835017e-08
2.96966464209e-08
2.92757330872e-08
2.8895237947e-08
2.8557355494e-08
2.82653359118e-08
2.80195335255e-08
2.78218860309e-08
2.76719547812e-08
2.75705093283e-08
2.75072177017e-08
0.232918
0.232918
0.232918
0.232918
0.232918
0.232918
0.232918
0.232918
0.232918
0.232918
0.232918
0.232918
0.232918
0.232918
0.232918
0.232918
0.232918
0.232918
0.232918
0.232918
0.232918
0.232918
0.232918
0.232918
0.232918
0.231075840418
3.34634847066e-05
3.07068878143e-07
1.01182994645e-07
6.43421973704e-08
5.28234462349e-08
4.95520095539e-08
4.83058431329e-08
4.75255089762e-08
4.68857723546e-08
4.62581636848e-08
4.56288460909e-08
4.49938979823e-08
4.43570268797e-08
4.37135972201e-08
4.3065854292e-08
4.24127303671e-08
4.177910838e-08
4.11116022774e-08
4.04366949255e-08
3.97562537544e-08
3.90693651206e-08
3.83797683361e-08
3.76870536779e-08
3.6992268344e-08
3.63268378195e-08
3.56388571861e-08
3.49610985185e-08
3.42940381185e-08
3.36415481758e-08
3.30088518581e-08
3.2424218086e-08
3.18400750363e-08
3.12881152414e-08
3.07702230353e-08
3.02886449546e-08
2.98481113434e-08
2.94504436853e-08
2.90984630269e-08
2.87928533239e-08
2.85592356657e-08
2.83520015805e-08
2.8196364312e-08
2.80908499953e-08
2.80254069185e-08
0.232918
0.232918
0.232918
0.232918
0.232918
0.232918
0.232918
0.232918
0.232918
0.232918
0.232918
0.232918
0.232918
0.232918
0.232918
0.232918
0.232918
0.232918
0.232918
0.232918
0.232918
0.232918
0.232918
0.232918
0.232917985192
0.209900884398
1.88376934064e-05
2.27566776027e-07
9.42891056897e-08
6.40130949977e-08
5.47828487118e-08
5.21255531884e-08
5.09906613799e-08
5.01118499794e-08
4.93498022282e-08
4.86035740927e-08
4.7864638706e-08
4.71254678994e-08
4.63867694428e-08
4.56753669523e-08
4.49320949801e-08
4.41870084909e-08
4.34399065979e-08
4.2687615241e-08
4.19331863282e-08
4.11764824849e-08
4.04162464357e-08
3.96837332294e-08
3.89224293998e-08
3.81663107027e-08
3.741404542e-08
3.66728349108e-08
3.59427848279e-08
3.52522461847e-08
3.45564325382e-08
3.38824894531e-08
3.32343824345e-08
3.26178562265e-08
3.20342050354e-08
3.15124572271e-08
3.10064660711e-08
3.05430587028e-08
3.01258979245e-08
2.97563477193e-08
2.94375561593e-08
2.91685782237e-08
2.89522450258e-08
2.87880140109e-08
2.86765815131e-08
2.86085595896e-08
0.232918
0.232918
0.232918
0.232918
0.232918
0.232918
0.232918
0.232918
0.232918
0.232918
0.232918
0.232918
0.232918
0.232918
0.232918
0.232918
0.232918
0.232918
0.232918
0.232918
0.232918
0.232918
0.232918
0.232918
0.232917802725
0.152102742062
1.11973640313e-05
1.86461675279e-07
8.96431146588e-08
6.44583281201e-08
5.74426062869e-08
5.51408817734e-08
5.39538713601e-08
5.29985859759e-08
5.2102896011e-08
5.12267411222e-08
5.03592386931e-08
4.95301057705e-08
4.86759468921e-08
4.78246145539e-08
4.69774984568e-08
4.61302711252e-08
4.52850322037e-08
4.44396425763e-08
4.36259829756e-08
4.27816105045e-08
4.19422414438e-08
4.11062382985e-08
4.0273499233e-08
3.94497236599e-08
3.86612224156e-08
3.78580973414e-08
3.70716544164e-08
3.63024759571e-08
3.55584098178e-08
3.48390585814e-08
3.41782258833e-08
3.35222583035e-08
3.2905433702e-08
3.23285858841e-08
3.17937986394e-08
3.13077286241e-08
3.08955827521e-08
3.05075114429e-08
3.01716759405e-08
2.98894876436e-08
2.96630036888e-08
2.94910523359e-08
2.9374273735e-08
2.93042970473e-08
0.232918
0.232918
0.232918
0.232918
0.232918
0.232918
0.232918
0.232918
0.232918
0.232918
0.232918
0.232918
0.232918
0.232918
0.232918
0.232918
0.232918
0.232918
0.232918
0.232918
0.232918
0.232918
0.232918
0.232918
0.232917491813
0.0616175945259
6.33093933634e-06
1.59773820142e-07
8.60483436007e-08
6.59207827019e-08
6.04685336657e-08
5.8609182117e-08
5.73429388054e-08
5.62259898455e-08
5.51663814306e-08
5.41641644027e-08
5.31490162948e-08
5.21511482177e-08
5.11660035065e-08
5.01922094523e-08
4.92238819687e-08
4.82660008857e-08
4.73431491167e-08
4.63955830735e-08
4.54536758453e-08
4.45166460804e-08
4.35898362875e-08
4.26990815606e-08
4.17874106872e-08
4.08894934046e-08
4.00027657745e-08
3.9136674944e-08
3.83171361998e-08
3.74921580354e-08
3.66946009843e-08
3.59286796211e-08
3.5194277674e-08
3.45002770579e-08
3.38718200077e-08
3.32626196922e-08
3.27006778627e-08
3.2188447331e-08
3.17270095257e-08
3.13182877549e-08
3.09671262319e-08
3.06964732686e-08
3.04586600319e-08
3.02779814482e-08
3.01548821318e-08
3.00817237507e-08
0.232918
0.232918
0.232918
0.232918
0.232918
0.232918
0.232918
0.232918
0.232918
0.232918
0.232918
0.232918
0.232918
0.232918
0.232918
0.232918
0.232918
0.232918
0.232918
0.232918
0.232918
0.232918
0.232918
0.232918
0.232915314806
0.000554498270761
2.20003308555e-06
1.40849760918e-07
8.39976913508e-08
6.82108442562e-08
6.40046043134e-08
6.23918986147e-08
6.10644117386e-08
5.98018153008e-08
5.85611378491e-08
5.73517753205e-08
5.61733592936e-08
5.50201757742e-08
5.38890179154e-08
5.28033569983e-08
5.17067913802e-08
5.06219215412e-08
4.95499532209e-08
4.84913531213e-08
4.74732916576e-08
4.64352772013e-08
4.54109713435e-08
4.44008679327e-08
4.34043229857e-08
4.24545903955e-08
4.14937172909e-08
4.0557108161e-08
3.96453643508e-08
3.87588264604e-08
3.79339197733e-08
3.71167423166e-08
3.63380591717e-08
3.55999026881e-08
3.49066534644e-08
3.42897302146e-08
3.36958302124e-08
3.31546425102e-08
3.26676110633e-08
3.22397240589e-08
3.18702678622e-08
3.15598111475e-08
3.13097174052e-08
3.11193611446e-08
3.10161747021e-08
3.09111064188e-08
0.232918
0.232918
0.232918
0.232918
0.232918
0.232918
0.232918
0.232918
0.232918
0.232918
0.232918
0.232918
0.232918
0.232918
0.232918
0.232918
0.232918
0.232918
0.232918
0.232918
0.232918
0.232918
0.232918
0.232918
0.232799979226
6.75877526872e-05
5.41943981855e-07
1.27471774152e-07
8.32580063898e-08
7.11732761127e-08
6.80481184272e-08
6.65492145446e-08
6.50925232903e-08
6.36433337019e-08
6.22100770881e-08
6.08170782357e-08
5.9456078264e-08
5.81655446301e-08
5.68693201233e-08
5.56013903078e-08
5.43585121471e-08
5.31363219302e-08
5.19663225256e-08
5.0782707667e-08
4.96171609041e-08
4.84716680277e-08
4.73738954955e-08
4.62656416969e-08
4.51770341108e-08
4.41125989437e-08
4.30713934352e-08
4.20899712546e-08
4.11068400413e-08
4.01586657379e-08
3.92455021345e-08
3.84033024829e-08
3.757237196e-08
3.67892096671e-08
3.60558189244e-08
3.53746054968e-08
3.47754346325e-08
3.42038322132e-08
3.36928209401e-08
3.32422098295e-08
3.28530001079e-08
3.2527388913e-08
3.22638431899e-08
3.20636533717e-08
3.19268442399e-08
3.18454996368e-08
0.232918
0.232918
0.232918
0.232918
0.232918
0.232918
0.232918
0.232918
0.232918
0.232918
0.232918
0.232918
0.232918
0.232918
0.232918
0.232918
0.232918
0.232918
0.232918
0.232918
0.232918
0.232918
0.232918
0.232918
0.227345952759
2.85615195251e-05
3.17096298559e-07
1.17802240093e-07
8.396321013e-08
7.50187804292e-08
7.2695404986e-08
7.11606056036e-08
6.94794641373e-08
6.77980180985e-08
6.61478144238e-08
6.45489648527e-08
6.30258080131e-08
6.15136724024e-08
6.00425378897e-08
5.86051143861e-08
5.72364094059e-08
5.58658319413e-08
5.45207602285e-08
5.32054301776e-08
5.19467235489e-08
5.068257206e-08
4.94413106002e-08
4.82292878316e-08
4.70745442823e-08
4.5916585196e-08
4.47912640874e-08
4.36983990648e-08
4.26740830848e-08
4.16551084542e-08
4.06811641172e-08
3.97517308249e-08
3.88974375264e-08
3.80669544236e-08
3.72907256858e-08
3.65700200061e-08
3.59069914827e-08
3.53362008157e-08
3.47976507204e-08
3.43226362394e-08
3.39128824044e-08
3.35696202048e-08
3.32928841709e-08
3.3082517329e-08
3.29376720649e-08
3.28519333867e-08
0.232918
0.232918
0.232918
0.232918
0.232918
0.232918
0.232918
0.232918
0.232918
0.232918
0.232918
0.232918
0.232918
0.232918
0.232918
0.232918
0.232918
0.232918
0.232918
0.232918
0.232918
0.232918
0.232918
0.232917877992
0.179402875558
1.48157567305e-05
2.34614599615e-07
1.11667103314e-07
8.59748068022e-08
7.97075388156e-08
7.7935773395e-08
7.61689740699e-08
7.42076984956e-08
7.22636423092e-08
7.0407410965e-08
6.85793951785e-08
6.68126316443e-08
6.50946424363e-08
6.34653554322e-08
6.1847238182e-08
6.02715839653e-08
5.8772043874e-08
5.72761474931e-08
5.5813988919e-08
5.43888287435e-08
5.30282047509e-08
5.16690248127e-08
5.03441226302e-08
4.90870402687e-08
4.78334940723e-08
4.66165123889e-08
4.54395686649e-08
4.43391097362e-08
4.32471471117e-08
4.22073591627e-08
4.1215928163e-08
4.03107604532e-08
3.94296285134e-08
3.86058893571e-08
3.78451524031e-08
3.71474609483e-08
3.65141602395e-08
3.59760374554e-08
3.5477302783e-08
3.50476016933e-08
3.46860942476e-08
3.43954009817e-08
3.41733166189e-08
3.40198077751e-08
3.39301712524e-08
0.232918
0.232918
0.232918
0.232918
0.232918
0.232918
0.232918
0.232918
0.232918
0.232918
0.232918
0.232918
0.232918
0.232918
0.232918
0.232918
0.232918
0.232918
0.232918
0.232918
0.232918
0.232918
0.232918
0.232917518382
0.0752458076157
7.76152961778e-06
1.89866930319e-07
1.0831289162e-07
8.93010429972e-08
8.52469805663e-08
8.36613953321e-08
8.15963674297e-08
7.93070485493e-08
7.71007189868e-08
7.49313432745e-08
7.28456505396e-08
7.0874290141e-08
6.89326385212e-08
6.7058263974e-08
6.52767900002e-08
6.3518596972e-08
6.18078545283e-08
6.01840123867e-08
5.85676351246e-08
5.69988789957e-08
5.54698830615e-08
5.4018639082e-08
5.25776391432e-08
5.11743967862e-08
4.98542040905e-08
4.85401957059e-08
4.72767985003e-08
4.60617241764e-08
4.49297081734e-08
4.38189269739e-08
4.27664938509e-08
4.17703778109e-08
4.08693217815e-08
4.00005069444e-08
3.91964625154e-08
3.84593510421e-08
3.77929270238e-08
3.72277524055e-08
3.67031690916e-08
3.62514124087e-08
3.58717042192e-08
3.55657177377e-08
3.53313291552e-08
3.51692566951e-08
3.50742450132e-08
0.232918
0.232918
0.232918
0.232918
0.232918
0.232918
0.232918
0.232918
0.232918
0.232918
0.232918
0.232918
0.232918
0.232918
0.232918
0.232918
0.232918
0.232918
0.232918
0.232918
0.232918
0.232918
0.232918
0.232913814402
0.00034353506456
2.51176641646e-06
1.62838537871e-07
1.06813509736e-07
9.39025859037e-08
9.15358944922e-08
8.98561244659e-08
8.74241941465e-08
8.47896513712e-08
8.22058437774e-08
7.97309075089e-08
7.73999618905e-08
7.51286032498e-08
7.29834444974e-08
7.08814106863e-08
6.88515208594e-08
6.69294631402e-08
6.50348391934e-08
6.31988923396e-08
6.14592081425e-08
5.97339785669e-08
5.8063681622e-08
5.64813882709e-08
5.4913025097e-08
5.3396500851e-08
5.1968773093e-08
5.05559164839e-08
4.91997193554e-08
4.78988882027e-08
4.66925394473e-08
4.55099907237e-08
4.43906097874e-08
4.33382167883e-08
4.2385121713e-08
4.14640691789e-08
4.06172291632e-08
3.98427458206e-08
3.91755353816e-08
3.8546108353e-08
3.79960351096e-08
3.75217044988e-08
3.71224186677e-08
3.68007988885e-08
3.65537955749e-08
3.63819009218e-08
3.62810603108e-08
0.232918
0.232918
0.232918
0.232918
0.232918
0.232918
0.232918
0.232918
0.232918
0.232918
0.232918
0.232918
0.232918
0.232918
0.232918
0.232918
0.232918
0.232918
0.232918
0.232918
0.232918
0.232918
0.232918
0.232104431754
4.54280533796e-05
5.01419033989e-07
1.46324242633e-07
1.07895985451e-07
9.97218603471e-08
9.83529908853e-08
9.63755013073e-08
9.35123722601e-08
9.04996676553e-08
8.75734115272e-08
8.48158707712e-08
8.21456959507e-08
7.96339627622e-08
7.71875903196e-08
7.488296206e-08
7.2625107982e-08
7.04538057354e-08
6.84001069693e-08
6.63778052611e-08
6.44303820593e-08
6.25830757986e-08
6.07611130359e-08
5.90428381231e-08
5.734429731e-08
5.57086043541e-08
5.41696526343e-08
5.26539158821e-08
5.12028755446e-08
4.98153398347e-08
4.85282521488e-08
4.72734423032e-08
4.60888089352e-08
4.50082696532e-08
4.3966761581e-08
4.29977667121e-08
4.21052688088e-08
4.12906803718e-08
4.05891097512e-08
3.99313931667e-08
3.9353748408e-08
3.88552726214e-08
3.84371860902e-08
3.80978354095e-08
3.78374127849e-08
3.76550200367e-08
3.75466226911e-08
0.232918
0.232918
0.232918
0.232918
0.232918
0.232918
0.232918
0.232918
0.232918
0.232918
0.232918
0.232918
0.232918
0.232918
0.232918
0.232918
0.232918
0.232918
0.232918
0.232918
0.232918
0.232918
0.23291791781
0.193856704465
1.81753398038e-05
2.91289262678e-07
1.37445234512e-07
1.11302732799e-07
1.06929790356e-07
1.0586531574e-07
1.03287091556e-07
9.9908815395e-08
9.6479552481e-08
9.32227368782e-08
9.00813450038e-08
8.71319219315e-08
8.42807044878e-08
8.16016242643e-08
7.89961650582e-08
7.65429390098e-08
7.41486288562e-08
7.18853484825e-08
6.96720618829e-08
6.75404979138e-08
6.55292764654e-08
6.35527608828e-08
6.16905088962e-08
5.9856918523e-08
5.80967730261e-08
5.64438792063e-08
5.48245405319e-08
5.32743609421e-08
5.18349659027e-08
5.04305654618e-08
4.91021252013e-08
4.78477363098e-08
4.67072205322e-08
4.56090987565e-08
4.45911817006e-08
4.36548112505e-08
4.28355870652e-08
4.20630674716e-08
4.13732767002e-08
4.07657775036e-08
4.02443170746e-08
3.98062794409e-08
3.94503895558e-08
3.92129832357e-08
3.90204155669e-08
3.8905767984e-08
0.232918
0.232918
0.232918
0.232918
0.232918
0.232918
0.232918
0.232918
0.232918
0.232918
0.232918
0.232918
0.232918
0.232918
0.232918
0.232918
0.232918
0.232918
0.232918
0.232918
0.232918
0.232918
0.232917460257
0.0662705951059
8.26944889873e-06
2.18513354057e-07
1.3302645336e-07
1.16908991242e-07
1.15229515201e-07
1.13845281005e-07
1.10572551582e-07
1.06645958854e-07
1.02754231962e-07
9.90926517124e-08
9.55823303852e-08
9.22959830824e-08
8.91277655325e-08
8.61554555377e-08
8.32793967523e-08
8.05789155578e-08
7.79464633164e-08
7.54714493065e-08
7.30532019596e-08
7.07388469449e-08
6.85538848388e-08
6.64179233349e-08
6.44082903305e-08
6.24387691719e-08
6.05491233436e-08
5.87831290802e-08
5.70532876996e-08
5.54056732696e-08
5.38775557971e-08
5.23898092273e-08
5.09851438414e-08
4.97016750483e-08
4.84606896609e-08
4.7305096164e-08
4.62364771413e-08
4.52932745112e-08
4.43971063411e-08
4.35864718255e-08
4.28657162612e-08
4.22324528082e-08
4.16865659369e-08
4.12644367463e-08
4.08914941643e-08
4.0603848757e-08
4.03995900395e-08
4.02775285541e-08
0.232918
0.232918
0.232918
0.232918
0.232918
0.232918
0.232918
0.232918
0.232918
0.232918
0.232918
0.232918
0.232918
0.232918
0.232918
0.232918
0.232918
0.232918
0.232918
0.232918
0.232918
0.232918
0.232904806714
0.000134025497187
1.90683042952e-06
1.84010144452e-07
1.33017420221e-07
1.24856429116e-07
1.24491001238e-07
1.22275174529e-07
1.18107597479e-07
1.13571419385e-07
1.09241044632e-07
1.05101697651e-07
1.01242837835e-07
9.75510089403e-08
9.4098134546e-08
9.08226195985e-08
8.76654417753e-08
8.46993635751e-08
8.18286315461e-08
7.90854234182e-08
7.65069472152e-08
7.4000225107e-08
7.16386783725e-08
6.9337196951e-08
6.71759707699e-08
6.50676373867e-08
6.30514868393e-08
6.11662087561e-08
5.93291775084e-08
5.76253891292e-08
5.59629827489e-08
5.43916839462e-08
5.29520255888e-08
5.15602079016e-08
5.02580016654e-08
4.90480919887e-08
4.79695463613e-08
4.69406219817e-08
4.60046608522e-08
4.51603741135e-08
4.44080794128e-08
4.37854857186e-08
4.32155274049e-08
4.27350023991e-08
4.23449864694e-08
4.20420240178e-08
4.18271209137e-08
4.16961416408e-08
0.232918
0.232918
0.232918
0.232918
0.232918
0.232918
0.232918
0.232918
0.232918
0.232918
0.232918
0.232918
0.232918
0.232918
0.232918
0.232918
0.232918
0.232918
0.232918
0.232918
0.232918
0.232918
0.219672015944
2.7297621027e-05
4.12369567115e-07
1.66954543769e-07
1.37053323425e-07
1.3413690177e-07
1.34207683393e-07
1.30788836228e-07
1.25767220588e-07
1.20691569398e-07
1.15818098053e-07
1.11284817729e-07
1.07017283063e-07
1.02948252356e-07
9.91533978842e-08
9.55173621276e-08
9.21118948875e-08
8.88806722817e-08
8.57599103954e-08
8.28329615976e-08
8.00012965295e-08
7.734163411e-08
7.47583664161e-08
7.22899009319e-08
6.99806350774e-08
6.77278926519e-08
6.562712442e-08
6.35809918376e-08
6.16359537925e-08
5.98333855049e-08
5.80829604948e-08
5.64301548356e-08
5.49157724466e-08
5.34563682056e-08
5.20924617422e-08
5.0869200889e-08
4.96988604552e-08
4.86258609029e-08
4.7650307109e-08
4.68128713658e-08
4.60286427283e-08
4.5339419462e-08
4.47451338149e-08
4.42449113555e-08
4.38358239369e-08
4.35189182416e-08
4.33311490765e-08
4.31903288517e-08
0.232918
0.232918
0.232918
0.232918
0.232918
0.232918
0.232918
0.232918
0.232918
0.232918
0.232918
0.232918
0.232918
0.232918
0.232918
0.232918
0.232918
0.232918
0.232918
0.232918
0.232918
0.232917545838
0.0932550259491
1.04559987791e-05
2.64163918511e-07
1.6010905864e-07
1.44905619344e-07
1.45348719738e-07
1.44213906883e-07
1.39399022962e-07
1.33604598384e-07
1.27872569829e-07
1.22535929156e-07
1.17537824883e-07
1.12850132381e-07
1.08393046871e-07
1.04244688067e-07
1.00283858768e-07
9.65832554692e-08
9.30804405896e-08
8.9709517094e-08
8.6552397372e-08
8.35056878119e-08
8.06523837135e-08
7.78884464191e-08
7.53006146538e-08
7.27898233084e-08
7.0450572295e-08
6.81742821777e-08
6.60101725406e-08
6.40026654873e-08
6.20577161048e-08
6.0218857467e-08
5.85304878294e-08
5.69005593019e-08
5.53741909938e-08
5.39942865503e-08
5.26738643541e-08
5.14577267511e-08
5.03862116894e-08
4.93707587282e-08
4.84559107821e-08
4.7640598911e-08
4.69245535526e-08
4.63507511083e-08
4.58295333793e-08
4.54019512795e-08
4.50697685843e-08
4.48283641831e-08
4.4677015897e-08
0.232918
0.232918
0.232918
0.232918
0.232918
0.232918
0.232918
0.232918
0.232918
0.232918
0.232918
0.232918
0.232918
0.232918
0.232918
0.232918
0.232918
0.232918
0.232918
0.232918
0.232918
0.232878420941
0.000129806319625
2.49340232626e-06
2.12708072932e-07
1.60917174204e-07
1.56043200787e-07
1.5743778289e-07
1.54285727436e-07
1.4807425034e-07
1.41420423181e-07
1.35135171585e-07
1.29271725143e-07
1.23798362183e-07
1.1868349078e-07
1.13831214464e-07
1.09325555454e-07
1.05090916781e-07
1.01037695618e-07
9.72597980257e-08
9.36332668078e-08
9.0249247161e-08
8.6989264509e-08
8.39415098285e-08
8.09996663352e-08
7.82519756032e-08
7.55934910399e-08
7.31155987072e-08
7.07149338227e-08
6.84847275702e-08
6.632707557e-08
6.42853107037e-08
6.24078059953e-08
6.05948954602e-08
5.89427721504e-08
5.73511691222e-08
5.5869223207e-08
5.44972435605e-08
5.32805115459e-08
5.21211214852e-08
5.10678544843e-08
5.0120038983e-08
4.9321824908e-08
4.85793286966e-08
4.79388961648e-08
4.73971739303e-08
4.69522707263e-08
4.66039834325e-08
4.63490936467e-08
4.62328776813e-08
0.232918
0.232918
0.232918
0.232918
0.232918
0.232918
0.232918
0.232918
0.232918
0.232918
0.232918
0.232918
0.232918
0.232918
0.232918
0.232918
0.232918
0.232918
0.232918
0.232918
0.232917924246
0.200880098788
2.24326238695e-05
4.23830663231e-07
1.92128519971e-07
1.67977232465e-07
1.69175680859e-07
1.69492891741e-07
1.64021032647e-07
1.5660317358e-07
1.49250562498e-07
1.42364718354e-07
1.35969836253e-07
1.30016996519e-07
1.24462421133e-07
1.19213087892e-07
1.14348585792e-07
1.09779276301e-07
1.05431132971e-07
1.01378138355e-07
9.75579182433e-08
9.38919107667e-08
9.04776666628e-08
8.71895672859e-08
8.41213891736e-08
8.11650268966e-08
7.84097367292e-08
7.57475804031e-08
7.32789398471e-08
7.08897026712e-08
6.86814323011e-08
6.65476702005e-08
6.45386818012e-08
6.27026172579e-08
6.09341021699e-08
5.92812069941e-08
5.77971415994e-08
5.63730492778e-08
5.50636180597e-08
5.38644871602e-08
5.28269077713e-08
5.18462925702e-08
5.09733611685e-08
5.02070494209e-08
4.95427365798e-08
4.90291786364e-08
4.85653444866e-08
4.8200810412e-08
4.79315025327e-08
4.77556922203e-08
0.232918
0.232918
0.232918
0.232918
0.232918
0.232918
0.232918
0.232918
0.232918
0.232918
0.232918
0.232918
0.232918
0.232918
0.232918
0.232918
0.232918
0.232918
0.232918
0.232918
0.232917103512
0.0149198823901
7.66456025509e-06
2.74048422137e-07
1.88535908944e-07
1.806298516e-07
1.83890450721e-07
1.81142153337e-07
1.73584634001e-07
1.65034868559e-07
1.56951239346e-07
1.49465255469e-07
1.42531206997e-07
1.36098995284e-07
1.30108977382e-07
1.24525264025e-07
1.19248732383e-07
1.14359303467e-07
1.09765863702e-07
1.05395081752e-07
1.01334927763e-07
9.75036325696e-08
9.38267909224e-08
9.04109693287e-08
8.71210102955e-08
8.40605538505e-08
8.11155641299e-08
7.83811459024e-08
7.57447812872e-08
7.33027041464e-08
7.09475253844e-08
6.87311252234e-08
6.66957665389e-08
6.47377182656e-08
6.29069271295e-08
6.12509583674e-08
5.96626475713e-08
5.81960920449e-08
5.68982811065e-08
5.56616956073e-08
5.45383647976e-08
5.35306087913e-08
5.26806627698e-08
5.18900834461e-08
5.12038461038e-08
5.0620978134e-08
5.01395045711e-08
4.97586530076e-08
4.9474702005e-08
4.93388289061e-08
0.232918
0.232918
0.232918
0.232918
0.232918
0.232918
0.232918
0.232918
0.232918
0.232918