/*--------------------------------*- C++ -*----------------------------------*\
| =========                 |                                                 |
| \\      /  F ield         | foam-extend: Open Source CFD                    |
|  \\    /   O peration     | Version:     4.1                                |
|   \\  /    A nd           | Web:         http://www.foam-extend.org         |
|    \\/     M anipulation  |                                                 |
\*---------------------------------------------------------------------------*/
FoamFile
{
    version     2.0;
    format      ascii;
    class       volScalarField;
    location    "0.0004";
    object      O2Plus;
}
// * * * * * * * * * * * * * * * * * * * * * * * * * * * * * * * * * * * * * //

dimensions      [0 0 0 0 0 0 0];

internalField   nonuniform List<scalar> 
8400
(
2.93247975069e-108
2.93247975071e-108
2.93247975073e-108
2.93247975074e-108
2.93247975076e-108
2.93247975077e-108
2.93247975079e-108
2.9324797508e-108
2.93247975082e-108
2.93247975083e-108
2.93247975085e-108
2.93247975086e-108
2.93247975087e-108
2.93247975089e-108
2.9324797509e-108
2.93247975091e-108
2.93247975093e-108
2.93247975094e-108
2.93247975095e-108
2.93247975096e-108
2.93247975098e-108
2.93247975114e-108
2.93247976028e-108
2.932480314e-108
2.93251245465e-108
2.93441650611e-108
2.97622122806e-108
2.39973400596e-42
1.49993077598e-10
1.22212038945e-07
2.08196576638e-07
2.26322937935e-07
2.322204419e-07
2.39199525872e-07
2.43439418793e-07
2.44196863061e-07
2.43489515838e-07
2.42408069032e-07
2.41264412087e-07
2.40133345995e-07
2.39095453793e-07
2.37972189441e-07
2.36839403594e-07
2.35688455225e-07
2.34508178238e-07
2.33288298295e-07
2.32023037972e-07
2.30712266597e-07
2.29429108869e-07
2.280061133e-07
2.26521733136e-07
2.24976120706e-07
2.23381327738e-07
2.21734548606e-07
2.20046200355e-07
2.18330834203e-07
2.16677298773e-07
2.14939945844e-07
2.13215368833e-07
2.11523949481e-07
2.09894318508e-07
2.08343331216e-07
2.06892214233e-07
2.05563481097e-07
2.04471682005e-07
2.03459033024e-07
2.02627038733e-07
2.01992116186e-07
2.01565472719e-07
2.01325795334e-07
2.93247974691e-108
2.93247974692e-108
2.93247974693e-108
2.93247974693e-108
2.93247974694e-108
2.93247974694e-108
2.93247974695e-108
2.93247974696e-108
2.93247974696e-108
2.93247974697e-108
2.93247974697e-108
2.93247974698e-108
2.93247974699e-108
2.93247974699e-108
2.932479747e-108
2.932479747e-108
2.93247974701e-108
2.93247974701e-108
2.93247974702e-108
2.93247974702e-108
2.93247974704e-108
2.93247974792e-108
2.93247980087e-108
2.93248299472e-108
2.93266581804e-108
2.94332926569e-108
3.08775463873e-108
2.98986588057e-19
3.10535019198e-08
1.79598176366e-07
2.17873402335e-07
2.26150089969e-07
2.30928330543e-07
2.37119602211e-07
2.39951949319e-07
2.40471358214e-07
2.40154330009e-07
2.39478933004e-07
2.38787293543e-07
2.38036189582e-07
2.37228427447e-07
2.36363263081e-07
2.35434408663e-07
2.34442798154e-07
2.33389312571e-07
2.32267649864e-07
2.31072311115e-07
2.29808668405e-07
2.28475456032e-07
2.27066362861e-07
2.2559244732e-07
2.24130733622e-07
2.22536247955e-07
2.20891641258e-07
2.19203231164e-07
2.17489810364e-07
2.15766300508e-07
2.14043408519e-07
2.12350850048e-07
2.10701362436e-07
2.09113316491e-07
2.07608917953e-07
2.06216166512e-07
2.05028350978e-07
2.03902683397e-07
2.02941343298e-07
2.02157550464e-07
2.01561757422e-07
2.01161511871e-07
2.00992777029e-07
2.93247974541e-108
2.93247974541e-108
2.93247974541e-108
2.93247974542e-108
2.93247974542e-108
2.93247974543e-108
2.93247974543e-108
2.93247974543e-108
2.93247974544e-108
2.93247974544e-108
2.93247974544e-108
2.93247974545e-108
2.93247974545e-108
2.93247974545e-108
2.93247974546e-108
2.93247974546e-108
2.93247974546e-108
2.93247974547e-108
2.93247974547e-108
2.93247974548e-108
2.93247974555e-108
2.93247975011e-108
2.93248003198e-108
2.9324968371e-108
2.93350030958e-108
2.96300857721e-108
1.14730360212e-42
9.70040644612e-12
9.53886672266e-08
2.02144627986e-07
2.22446410284e-07
2.26786122756e-07
2.32378994721e-07
2.37169069509e-07
2.38786713956e-07
2.38865958672e-07
2.38422464001e-07
2.37896500689e-07
2.37291064858e-07
2.36618716502e-07
2.35876332438e-07
2.35062825394e-07
2.34178153021e-07
2.3321928729e-07
2.32180258966e-07
2.31061475871e-07
2.29869031069e-07
2.28596846842e-07
2.2724530368e-07
2.25824500193e-07
2.24335691983e-07
2.22784208557e-07
2.21174555314e-07
2.19603991968e-07
2.17922263375e-07
2.16222576472e-07
2.14516636392e-07
2.12831125711e-07
2.11178755752e-07
2.09575357889e-07
2.0804167548e-07
2.0660313018e-07
2.05270429437e-07
2.0406284324e-07
2.03001979433e-07
2.02179288127e-07
2.01441987865e-07
2.0088161098e-07
2.00505741981e-07
2.0034126824e-07
2.93247974462e-108
2.93247974462e-108
2.93247974463e-108
2.93247974463e-108
2.93247974463e-108
2.93247974463e-108
2.93247974464e-108
2.93247974464e-108
2.93247974464e-108
2.93247974465e-108
2.93247974465e-108
2.93247974465e-108
2.93247974465e-108
2.93247974466e-108
2.93247974466e-108
2.93247974466e-108
2.93247974466e-108
2.93247974466e-108
2.93247974467e-108
2.93247974467e-108
2.932479745e-108
2.93247976547e-108
2.93248103496e-108
2.93255561743e-108
2.93702112754e-108
3.01453398285e-108
1.00160672505e-28
9.83049218456e-09
1.57783862411e-07
2.12923763398e-07
2.24249849556e-07
2.28646734669e-07
2.34839898036e-07
2.38560976615e-07
2.39396345913e-07
2.39259497814e-07
2.38675511035e-07
2.38058399154e-07
2.37373326478e-07
2.3662640505e-07
2.3581259934e-07
2.3492964371e-07
2.33977407149e-07
2.32952984358e-07
2.31848419199e-07
2.30666003763e-07
2.2941104501e-07
2.28077348782e-07
2.26667842482e-07
2.25192840927e-07
2.23654628192e-07
2.22135349558e-07
2.20494052634e-07
2.18810339672e-07
2.17108417093e-07
2.15395328809e-07
2.13687754555e-07
2.12008478943e-07
2.10370158202e-07
2.08787258556e-07
2.07282177579e-07
2.05956784355e-07
2.04657867471e-07
2.0348526908e-07
2.02458472001e-07
2.01585513366e-07
2.00875054312e-07
2.00335982389e-07
1.99974107261e-07
1.9981243518e-07
2.93247974415e-108
2.93247974416e-108
2.93247974416e-108
2.93247974416e-108
2.93247974416e-108
2.93247974416e-108
2.93247974417e-108
2.93247974417e-108
2.93247974417e-108
2.93247974417e-108
2.93247974417e-108
2.93247974418e-108
2.93247974418e-108
2.93247974418e-108
2.93247974418e-108
2.93247974418e-108
2.93247974419e-108
2.93247974419e-108
2.93247974419e-108
2.93247974421e-108
2.93247974525e-108
2.93247980806e-108
2.93248360349e-108
2.93270136338e-108
2.94538109561e-108
3.11079648463e-108
2.22980435782e-18
3.73387186616e-08
1.83598572786e-07
2.19100802201e-07
2.26639014242e-07
2.32276606963e-07
2.383482384e-07
2.40995499164e-07
2.41341640436e-07
2.40941232033e-07
2.40295664022e-07
2.39478820162e-07
2.38677879236e-07
2.37814397091e-07
2.36885025398e-07
2.35887374144e-07
2.34816970331e-07
2.336771242e-07
2.32466927048e-07
2.31177990626e-07
2.29817799432e-07
2.28466240701e-07
2.26969002192e-07
2.25405597876e-07
2.23782869882e-07
2.22115794312e-07
2.20410029325e-07
2.18673004269e-07
2.16922144693e-07
2.151728865e-07
2.13433537815e-07
2.11732052171e-07
2.10156697056e-07
2.08566278931e-07
2.07061956495e-07
2.05657636787e-07
2.04366770275e-07
2.03203508404e-07
2.02185437934e-07
2.0132301936e-07
2.00623313068e-07
2.00091702567e-07
1.99734469238e-07
1.99572447217e-07
2.93247974385e-108
2.93247974385e-108
2.93247974385e-108
2.93247974385e-108
2.93247974386e-108
2.93247974386e-108
2.93247974386e-108
2.93247974386e-108
2.93247974386e-108
2.93247974386e-108
2.93247974387e-108
2.93247974387e-108
2.93247974387e-108
2.93247974387e-108
2.93247974387e-108
2.93247974387e-108
2.93247974388e-108
2.93247974388e-108
2.93247974388e-108
2.93247974392e-108
2.9324797462e-108
2.93247988815e-108
2.932488681e-108
2.93302050039e-108
2.9558972577e-108
4.37244286658e-43
6.83956019941e-13
7.19842266893e-08
1.96931652021e-07
2.23214578809e-07
2.30133513691e-07
2.36736877161e-07
2.42596011262e-07
2.44501697565e-07
2.44411179074e-07
2.43742973443e-07
2.42910261971e-07
2.42009070608e-07
2.41050890651e-07
2.40035048807e-07
2.38955267075e-07
2.37809843276e-07
2.36600547795e-07
2.35323304207e-07
2.33973661424e-07
2.32558537047e-07
2.31076222772e-07
2.2952763656e-07
2.27912118718e-07
2.26243565719e-07
2.24523673172e-07
2.22759994283e-07
2.2096965785e-07
2.1916092228e-07
2.17420468954e-07
2.15612436685e-07
2.13823740309e-07
2.12072508131e-07
2.1038211885e-07
2.08759781511e-07
2.0723054261e-07
2.05808203602e-07
2.04505467906e-07
2.03334497089e-07
2.02389198704e-07
2.01520018649e-07
2.00816897029e-07
2.00284089458e-07
1.99925468194e-07
1.99762438401e-07
2.93247974364e-108
2.93247974364e-108
2.93247974364e-108
2.93247974364e-108
2.93247974365e-108
2.93247974365e-108
2.93247974365e-108
2.93247974365e-108
2.93247974365e-108
2.93247974365e-108
2.93247974365e-108
2.93247974365e-108
2.93247974366e-108
2.93247974366e-108
2.93247974366e-108
2.93247974366e-108
2.93247974366e-108
2.93247974366e-108
2.93247974367e-108
2.93247974377e-108
2.93247975e-108
2.93248013402e-108
2.93250287296e-108
2.93386009956e-108
2.96857474535e-108
1.649543606e-42
3.31221015753e-11
1.08033522782e-07
2.05957083351e-07
2.2679062938e-07
2.3404398864e-07
2.42203002115e-07
2.47493545127e-07
2.48802661332e-07
2.48326562272e-07
2.47407224254e-07
2.46364082359e-07
2.45271018607e-07
2.44129152382e-07
2.42933225083e-07
2.41687605312e-07
2.4038264767e-07
2.39016433348e-07
2.37581059315e-07
2.3608416818e-07
2.34524291349e-07
2.32897243175e-07
2.31215623973e-07
2.2947820306e-07
2.27687715592e-07
2.25853802745e-07
2.24070173723e-07
2.22175223953e-07
2.20273635082e-07
2.18368344742e-07
2.16483264406e-07
2.14631042711e-07
2.12822939957e-07
2.11075965872e-07
2.09414191718e-07
2.0792910921e-07
2.06471683666e-07
2.05135910378e-07
2.03942608552e-07
2.02899761095e-07
2.02014747851e-07
2.01297651161e-07
2.0075398144e-07
2.00388397785e-07
2.00220485365e-07
2.93247974349e-108
2.93247974349e-108
2.93247974349e-108
2.93247974349e-108
2.93247974349e-108
2.93247974349e-108
2.93247974349e-108
2.93247974349e-108
2.9324797435e-108
2.9324797435e-108
2.9324797435e-108
2.9324797435e-108
2.9324797435e-108
2.9324797435e-108
2.9324797435e-108
2.9324797435e-108
2.9324797435e-108
2.93247974351e-108
2.93247974351e-108
2.93247974373e-108
2.93247975713e-108
2.9324805799e-108
2.93252913693e-108
2.93547972338e-108
2.99373993308e-108
1.55696780596e-29
3.00111359928e-09
1.40423551987e-07
2.12711654448e-07
2.3035338628e-07
2.39308050374e-07
2.47999938273e-07
2.52846403493e-07
2.53692983808e-07
2.52909555939e-07
2.5176740334e-07
2.50512494749e-07
2.49212234678e-07
2.47871096565e-07
2.46480243752e-07
2.45046122139e-07
2.43558210538e-07
2.42012918404e-07
2.40415589756e-07
2.38759377997e-07
2.37040936604e-07
2.35265358556e-07
2.33439517843e-07
2.31642209315e-07
2.29724447065e-07
2.27763015726e-07
2.25780049169e-07
2.23781816402e-07
2.21775267476e-07
2.19779742938e-07
2.17807949553e-07
2.15955384511e-07
2.14079572753e-07
2.12274473533e-07
2.10550340457e-07
2.0893339763e-07
2.07435110198e-07
2.06068068003e-07
2.04841644652e-07
2.03769895285e-07
2.02865632225e-07
2.02215306306e-07
2.01657771272e-07
2.01282216203e-07
2.01109523801e-07
2.93247974337e-108
2.93247974337e-108
2.93247974337e-108
2.93247974337e-108
2.93247974337e-108
2.93247974338e-108
2.93247974338e-108
2.93247974338e-108
2.93247974338e-108
2.93247974338e-108
2.93247974338e-108
2.93247974338e-108
2.93247974338e-108
2.93247974338e-108
2.93247974338e-108
2.93247974339e-108
2.93247974339e-108
2.93247974339e-108
2.9324797434e-108
2.93247974388e-108
2.93247977335e-108
2.93248157475e-108
2.93258665559e-108
2.93886414745e-108
3.03848068861e-108
1.54393135667e-22
1.67781023313e-08
1.6705781377e-07
2.18466202833e-07
2.34586750753e-07
2.44856419183e-07
2.54420265054e-07
2.58760000035e-07
2.5911445702e-07
2.58036896388e-07
2.56673528369e-07
2.55208564009e-07
2.53701823514e-07
2.52154443023e-07
2.50563414886e-07
2.4892864318e-07
2.47250811378e-07
2.45517944353e-07
2.43740231328e-07
2.41906587986e-07
2.40105472487e-07
2.38171496562e-07
2.3618774791e-07
2.34164657494e-07
2.32102202305e-07
2.30016937803e-07
2.27909086049e-07
2.25789505216e-07
2.23759535202e-07
2.21660043482e-07
2.19597540865e-07
2.17582127897e-07
2.15622654784e-07
2.13747254244e-07
2.11967695408e-07
2.10377954518e-07
2.08830553348e-07
2.07415651199e-07
2.06152625648e-07
2.05052811114e-07
2.04122331487e-07
2.03368505204e-07
2.02796274116e-07
2.02409161043e-07
2.02228704288e-07
2.93247974328e-108
2.93247974328e-108
2.93247974328e-108
2.93247974328e-108
2.93247974328e-108
2.93247974328e-108
2.93247974328e-108
2.93247974329e-108
2.93247974329e-108
2.93247974329e-108
2.93247974329e-108
2.93247974329e-108
2.93247974329e-108
2.93247974329e-108
2.93247974329e-108
2.93247974329e-108
2.93247974329e-108
2.93247974329e-108
2.93247974331e-108
2.93247974427e-108
2.93247980235e-108
2.93248330717e-108
2.93268429039e-108
2.94437699413e-108
3.10094547581e-108
1.0632616332e-18
3.30441238606e-08
1.8173734722e-07
2.23897779295e-07
2.39756779481e-07
2.5173785357e-07
2.61570277665e-07
2.65213262995e-07
2.65005577838e-07
2.63690177879e-07
2.6208681789e-07
2.6040247857e-07
2.58669615859e-07
2.56904790968e-07
2.55097926113e-07
2.53255851594e-07
2.51376536923e-07
2.49528789234e-07
2.4755999283e-07
2.4554244174e-07
2.43482178406e-07
2.41376955391e-07
2.39236687942e-07
2.37061611914e-07
2.34853485321e-07
2.32708950378e-07
2.30467643982e-07
2.28231346971e-07
2.26003679361e-07
2.23799228994e-07
2.21637764274e-07
2.19614827059e-07
2.17573917498e-07
2.15624301421e-07
2.13776450058e-07
2.12039480764e-07
2.10437429546e-07
2.08981910407e-07
2.07681783005e-07
2.06546396796e-07
2.05669706594e-07
2.04892611866e-07
2.04301567079e-07
2.03900277935e-07
2.03713424407e-07
2.9324797432e-108
2.93247974321e-108
2.93247974321e-108
2.93247974321e-108
2.93247974321e-108
2.93247974321e-108
2.93247974321e-108
2.93247974321e-108
2.93247974321e-108
2.93247974321e-108
2.93247974321e-108
2.93247974321e-108
2.93247974322e-108
2.93247974322e-108
2.93247974322e-108
2.93247974322e-108
2.93247974322e-108
2.93247974322e-108
2.93247974325e-108
2.93247974498e-108
2.93247984781e-108
2.93248592736e-108
2.93282736649e-108
2.95195062451e-108
5.84144946434e-44
3.61167716154e-14
5.37907404612e-08
1.92809811512e-07
2.29348342464e-07
2.4579678226e-07
2.59603002021e-07
2.6932395388e-07
2.72300705197e-07
2.71530800172e-07
2.69860076119e-07
2.67971862918e-07
2.66035177728e-07
2.64064044376e-07
2.62066843275e-07
2.60114418344e-07
2.5805037124e-07
2.55952699633e-07
2.53821820331e-07
2.51648796089e-07
2.49441359991e-07
2.4719911435e-07
2.44918826668e-07
2.4268960465e-07
2.40349231059e-07
2.37992525847e-07
2.35617902164e-07
2.33246151014e-07
2.30882536513e-07
2.28615435319e-07
2.26306215247e-07
2.24041341877e-07
2.21838000814e-07
2.19717967422e-07
2.17690003002e-07
2.15855215485e-07
2.14060575646e-07
2.12398636202e-07
2.10890900088e-07
2.09547861486e-07
2.08377751795e-07
2.07387882152e-07
2.0658294474e-07
2.05970281427e-07
2.05553103342e-07
2.05356391624e-07
2.93247974314e-108
2.93247974315e-108
2.93247974315e-108
2.93247974315e-108
2.93247974315e-108
2.93247974315e-108
2.93247974315e-108
2.93247974315e-108
2.93247974315e-108
2.93247974315e-108
2.93247974315e-108
2.93247974315e-108
2.93247974315e-108
2.93247974315e-108
2.93247974316e-108
2.93247974316e-108
2.93247974316e-108
2.93247974316e-108
2.93247974321e-108
2.93247974664e-108
2.93247996075e-108
2.93249295026e-108
2.93326805284e-108
2.96041832609e-108
7.66290345108e-43
2.61712811997e-12
8.07731689384e-08
2.02262504992e-07
2.35349251015e-07
2.52739561565e-07
2.68591730102e-07
2.77663986162e-07
2.79679815e-07
2.78480861302e-07
2.7646653188e-07
2.74290066646e-07
2.72075175989e-07
2.69921171016e-07
2.67672097335e-07
2.65397844117e-07
2.63103402363e-07
2.6077796132e-07
2.58426888139e-07
2.560459485e-07
2.53719491756e-07
2.5127807558e-07
2.48815351209e-07
2.4632972298e-07
2.43822230013e-07
2.41310431027e-07
2.38870888789e-07
2.36358258299e-07
2.33864752003e-07
2.31393133354e-07
2.28969676831e-07
2.26598715252e-07
2.24389548406e-07
2.22176281458e-07
2.20070093304e-07
2.18079298593e-07
2.16214804856e-07
2.14501635407e-07
2.13032708038e-07
2.11645160144e-07
2.10432515894e-07
2.09408793503e-07
2.08579970126e-07
2.0794836796e-07
2.07516347443e-07
2.07311045782e-07
2.93247974309e-108
2.93247974309e-108
2.9324797431e-108
2.9324797431e-108
2.9324797431e-108
2.9324797431e-108
2.9324797431e-108
2.9324797431e-108
2.9324797431e-108
2.9324797431e-108
2.9324797431e-108
2.9324797431e-108
2.9324797431e-108
2.9324797431e-108
2.9324797431e-108
2.9324797431e-108
2.93247974311e-108
2.93247974311e-108
2.93247974323e-108
2.93247975095e-108
2.9324802206e-108
2.93250767152e-108
2.93412324589e-108
2.97309053623e-108
1.92977266038e-42
5.41700806477e-11
1.11073989281e-07
2.11016377214e-07
2.4159626213e-07
2.61096272744e-07
2.77981051138e-07
2.86549468343e-07
2.87635446392e-07
2.85874879462e-07
2.83481725987e-07
2.81054218994e-07
2.78538766991e-07
2.76025632574e-07
2.7350800645e-07
2.70982625701e-07
2.68435547647e-07
2.65878463441e-07
2.63377253963e-07
2.6077817198e-07
2.58158778464e-07
2.55517119107e-07
2.52866940744e-07
2.50280135231e-07
2.47601596079e-07
2.44926051832e-07
2.4224865769e-07
2.39596151988e-07
2.37049812727e-07
2.34457118061e-07
2.31916071592e-07
2.29444290671e-07
2.27045256555e-07
2.24750978733e-07
2.2264156357e-07
2.20578791919e-07
2.18654492815e-07
2.16883273992e-07
2.15273278871e-07
2.13836918943e-07
2.12591596978e-07
2.11624084416e-07
2.10768886032e-07
2.10115607432e-07
2.09667006545e-07
2.09451377021e-07
2.93247974305e-108
2.93247974305e-108
2.93247974305e-108
2.93247974305e-108
2.93247974305e-108
2.93247974305e-108
2.93247974306e-108
2.93247974306e-108
2.93247974306e-108
2.93247974306e-108
2.93247974306e-108
2.93247974306e-108
2.93247974306e-108
2.93247974306e-108
2.93247974306e-108
2.93247974306e-108
2.93247974306e-108
2.93247974307e-108
2.93247974333e-108
2.93247975941e-108
2.93248073404e-108
2.93253760371e-108
2.93594353509e-108
3.00105397752e-108
3.3847258975e-29
3.9101132118e-09
1.40852934644e-07
2.19305595141e-07
2.4883236608e-07
2.70684777881e-07
2.87987418495e-07
2.95572769397e-07
2.95857024142e-07
2.93649907924e-07
2.90881265616e-07
2.88044143825e-07
2.8521792197e-07
2.8240524218e-07
2.79605899081e-07
2.76876014154e-07
2.74077325049e-07
2.71268557401e-07
2.68454446553e-07
2.65633784317e-07
2.62877939996e-07
2.60032660529e-07
2.57183721979e-07
2.54330536001e-07
2.51477870436e-07
2.48716343909e-07
2.45884472293e-07
2.4308294344e-07
2.40319149119e-07
2.37598026952e-07
2.35023180807e-07
2.32443849087e-07
2.29952302012e-07
2.27562152598e-07
2.25291924912e-07
2.23243519394e-07
2.21253900284e-07
2.19421229477e-07
2.17757698201e-07
2.16280987769e-07
2.14995322405e-07
2.13907220517e-07
2.13021891192e-07
2.12344752872e-07
2.11969106491e-07
2.11651736998e-07
2.93247974301e-108
2.93247974302e-108
2.93247974302e-108
2.93247974302e-108
2.93247974302e-108
2.93247974302e-108
2.93247974302e-108
2.93247974302e-108
2.93247974302e-108
2.93247974302e-108
2.93247974302e-108
2.93247974302e-108
2.93247974302e-108
2.93247974302e-108
2.93247974302e-108
2.93247974302e-108
2.93247974302e-108
2.93247974304e-108
2.93247974364e-108
2.93247978004e-108
2.93248197616e-108
2.9326086341e-108
2.94003722877e-108
3.05414429976e-108
2.97510899792e-22
1.87953334106e-08
1.69290783777e-07
2.27735215085e-07
2.57247765865e-07
2.81241526446e-07
2.98479503671e-07
3.04783479412e-07
3.04205109444e-07
3.01525135633e-07
2.98406660324e-07
2.95248531094e-07
2.9210419694e-07
2.89064759747e-07
2.85965622985e-07
2.82885859232e-07
2.79815684439e-07
2.76754187506e-07
2.7377172024e-07
2.70714725554e-07
2.67660397628e-07
2.64609507016e-07
2.61639354166e-07
2.58599823576e-07
2.55566109413e-07
2.5255637782e-07
2.49567757886e-07
2.46702153354e-07
2.43798406398e-07
2.4095499069e-07
2.38177801009e-07
2.35576707155e-07
2.32980734331e-07
2.30502473057e-07
2.28152412372e-07
2.25945002924e-07
2.23976329699e-07
2.22082344732e-07
2.20370407842e-07
2.18848059569e-07
2.17523085636e-07
2.1640262331e-07
2.15490792126e-07
2.14791789199e-07
2.14307593052e-07
2.140687438e-07
2.93247974298e-108
2.93247974298e-108
2.93247974298e-108
2.93247974298e-108
2.93247974299e-108
2.93247974299e-108
2.93247974299e-108
2.93247974299e-108
2.93247974299e-108
2.93247974299e-108
2.93247974299e-108
2.93247974299e-108
2.93247974299e-108
2.93247974299e-108
2.93247974299e-108
2.93247974299e-108
2.93247974299e-108
2.93247974302e-108
2.93247974436e-108
2.93247982432e-108
2.93248455308e-108
2.93275058766e-108
2.94776131622e-108
3.13980574345e-108
1.89719898442e-16
3.83561810419e-08
1.86691166001e-07
2.3663084512e-07
2.67294710886e-07
2.93040715261e-07
3.09513466927e-07
3.1425577447e-07
3.12735957475e-07
3.09554347942e-07
3.06070828291e-07
3.02582956495e-07
2.99189448506e-07
2.95765841773e-07
2.92375233413e-07
2.89009859294e-07
2.85741983973e-07
2.82424995355e-07
2.7911370794e-07
2.75826172565e-07
2.72622150934e-07
2.69359409589e-07
2.661043192e-07
2.62876822494e-07
2.59747207216e-07
2.56563687682e-07
2.53423470019e-07
2.50323823329e-07
2.47370683936e-07
2.44395783264e-07
2.41506472701e-07
2.38712943069e-07
2.36104358059e-07
2.33537759465e-07
2.31107044595e-07
2.28823576414e-07
2.26700198999e-07
2.24846790678e-07
2.23084949173e-07
2.21513470243e-07
2.20147856191e-07
2.18994609633e-07
2.18056089446e-07
2.17334902445e-07
2.16833136981e-07
2.16582211341e-07
2.93247974295e-108
2.93247974296e-108
2.93247974296e-108
2.93247974296e-108
2.93247974296e-108
2.93247974296e-108
2.93247974296e-108
2.93247974296e-108
2.93247974296e-108
2.93247974296e-108
2.93247974296e-108
2.93247974296e-108
2.93247974296e-108
2.93247974296e-108
2.93247974296e-108
2.93247974296e-108
2.93247974296e-108
2.93247974301e-108
2.93247974581e-108
2.93247991473e-108
2.93249010458e-108
2.9330921037e-108
2.95845381707e-108
4.75927777674e-43
6.17453993066e-13
6.67130357563e-08
2.01036370133e-07
2.4658733289e-07
2.78951663517e-07
3.05847892926e-07
3.20886448168e-07
3.23775346406e-07
3.21340644029e-07
3.17669923525e-07
3.13884237836e-07
3.10052979962e-07
3.06273971918e-07
3.02534183892e-07
2.98916562104e-07
2.95264617777e-07
2.91649383535e-07
2.88141103278e-07
2.84586175452e-07
2.81053441881e-07
2.77550329921e-07
2.74147371533e-07
2.70692313171e-07
2.67271073645e-07
2.63964513813e-07
2.6061926915e-07
2.5731723297e-07
2.54076110286e-07
2.50990581159e-07
2.478897854e-07
2.44885843841e-07
2.41982389361e-07
2.39289341469e-07
2.36635534299e-07
2.34120898692e-07
2.3176981216e-07
2.29586797762e-07
2.27583329772e-07
2.2585807318e-07
2.24248959803e-07
2.22847901209e-07
2.21661849366e-07
2.20694685653e-07
2.19950314984e-07
2.19429581284e-07
2.19165002874e-07
2.93247974293e-108
2.93247974293e-108
2.93247974293e-108
2.93247974293e-108
2.93247974293e-108
2.93247974293e-108
2.93247974293e-108
2.93247974293e-108
2.93247974293e-108
2.93247974293e-108
2.93247974294e-108
2.93247974294e-108
2.93247974294e-108
2.93247974294e-108
2.93247974294e-108
2.93247974294e-108
2.93247974294e-108
2.93247974307e-108
2.93247975108e-108
2.93248023171e-108
2.93250802533e-108
2.93412143911e-108
2.97404308576e-108
1.82729854186e-42
3.64807533189e-11
1.03514174109e-07
2.14355467509e-07
2.57929553739e-07
2.92233460705e-07
3.19430804466e-07
3.32237487922e-07
3.33299879133e-07
3.3000731921e-07
3.25917019597e-07
3.2166924937e-07
3.17478611957e-07
3.13428925691e-07
3.09368000695e-07
3.05374247772e-07
3.01502175529e-07
2.97612737407e-07
2.93762490851e-07
2.90037668689e-07
2.86266676722e-07
2.8253919431e-07
2.78846212154e-07
2.75271392671e-07
2.71665580966e-07
2.68097569824e-07
2.64672749976e-07
2.6121509372e-07
2.57831315204e-07
2.54527667963e-07
2.51394014568e-07
2.4827861418e-07
2.45276875108e-07
2.42397407661e-07
2.39750079227e-07
2.3716652424e-07
2.34745597748e-07
2.32498252391e-07
2.3044280379e-07
2.28674578905e-07
2.27022731849e-07
2.2558428608e-07
2.24366883925e-07
2.23373252383e-07
2.22605975491e-07
2.22066021342e-07
2.21786027644e-07
2.93247974291e-108
2.93247974291e-108
2.93247974291e-108
2.93247974291e-108
2.93247974291e-108
2.93247974291e-108
2.93247974291e-108
2.93247974291e-108
2.93247974291e-108
2.93247974291e-108
2.93247974291e-108
2.93247974291e-108
2.93247974291e-108
2.93247974291e-108
2.93247974292e-108
2.93247974292e-108
2.93247974292e-108
2.93247974327e-108
2.93247976414e-108
2.93248101046e-108
2.93255273504e-108
2.93675269529e-108
3.01315446155e-108
6.30777318995e-29
5.56406252695e-09
1.41612396613e-07
2.27432316526e-07
2.70542241447e-07
3.07018849553e-07
3.3336782227e-07
3.43383094701e-07
3.42709073796e-07
3.38665562346e-07
3.34022644255e-07
3.29382955462e-07
3.24895719136e-07
3.20435751924e-07
3.16128827699e-07
3.118295732e-07
3.07597073253e-07
3.03503382544e-07
2.9939598271e-07
2.95338174098e-07
2.91414256449e-07
2.87459628065e-07
2.83561147717e-07
2.79793345225e-07
2.75996433075e-07
2.72261094074e-07
2.6867578645e-07
2.65068811999e-07
2.61547144103e-07
2.58113449974e-07
2.54869919347e-07
2.51644662372e-07
2.48543122273e-07
2.45581658422e-07
2.42855836279e-07
2.40194374299e-07
2.37710730595e-07
2.35412658452e-07
2.33403760793e-07
2.31493516393e-07
2.29801735128e-07
2.28328715868e-07
2.27079592817e-07
2.26058888778e-07
2.25268697612e-07
2.2470975474e-07
2.24413544469e-07
2.93247974289e-108
2.93247974289e-108
2.93247974289e-108
2.93247974289e-108
2.93247974289e-108
2.93247974289e-108
2.93247974289e-108
2.93247974289e-108
2.93247974289e-108
2.93247974289e-108
2.93247974289e-108
2.93247974289e-108
2.93247974289e-108
2.93247974289e-108
2.9324797429e-108
2.9324797429e-108
2.93247974291e-108
2.93247974392e-108
2.93247980367e-108
2.93248333507e-108
2.93268244992e-108
2.94395667746e-108
3.10040534294e-108
7.68566326817e-22
2.63390057912e-08
1.77416806256e-07
2.41172875922e-07
2.85277456788e-07
3.22987740226e-07
3.47049856998e-07
3.53966041296e-07
3.51708832751e-07
3.46999672223e-07
3.41936609113e-07
3.36985918876e-07
3.32080972082e-07
3.27354399456e-07
3.22661111657e-07
3.18136100285e-07
3.13614970484e-07
3.0917713696e-07
3.0488582596e-07
3.00583298594e-07
2.9635801628e-07
2.92264398655e-07
2.88157791584e-07
2.84201403104e-07
2.80223958519e-07
2.76324920736e-07
2.72584761223e-07
2.68836657092e-07
2.65182714321e-07
2.61632172104e-07
2.58272633234e-07
2.54952631972e-07
2.51765087867e-07
2.48809712543e-07
2.45917791689e-07
2.43189778484e-07
2.40644232162e-07
2.38292060936e-07
2.36234872152e-07
2.3428957337e-07
2.32560552002e-07
2.31053782239e-07
2.2977587985e-07
2.28727139246e-07
2.27911828871e-07
2.27331784133e-07
2.27016370091e-07
2.93247974287e-108
2.93247974287e-108
2.93247974287e-108
2.93247974287e-108
2.93247974287e-108
2.93247974287e-108
2.93247974287e-108
2.93247974287e-108
2.93247974287e-108
2.93247974287e-108
2.93247974288e-108
2.93247974288e-108
2.93247974288e-108
2.93247974288e-108
2.93247974288e-108
2.93247974288e-108
2.93247974293e-108
2.93247974565e-108
2.93247990265e-108
2.93248897826e-108
2.9330086925e-108
2.95776572156e-108
3.21101730033e-43
2.02712569825e-13
5.75827609848e-08
1.99720007114e-07
2.56640562561e-07
3.02247982965e-07
3.40038963169e-07
3.60454139975e-07
3.64032231388e-07
3.60347005198e-07
3.55041128167e-07
3.49635005368e-07
3.44262716271e-07
3.39080521461e-07
3.3396366552e-07
3.29028839125e-07
3.24133057146e-07
3.19411046185e-07
3.14713856056e-07
3.10170638907e-07
3.0563894434e-07
3.011857192e-07
2.96888419045e-07
2.92588486131e-07
2.88447714329e-07
2.84300786678e-07
2.80243185324e-07
2.76353661518e-07
2.72476418284e-07
2.68696646875e-07
2.65119133955e-07
2.61574865203e-07
2.58159800284e-07
2.54888046482e-07
2.51853132161e-07
2.48894936915e-07
2.46111017106e-07
2.43515075487e-07
2.41207463626e-07
2.39011204607e-07
2.37025319854e-07
2.35256672944e-07
2.33720168767e-07
2.32414292253e-07
2.31345042492e-07
2.30609772411e-07
2.30010326701e-07
2.29676602855e-07
2.93247974285e-108
2.93247974286e-108
2.93247974286e-108
2.93247974286e-108
2.93247974286e-108
2.93247974286e-108
2.93247974286e-108
2.93247974286e-108
2.93247974286e-108
2.93247974286e-108
2.93247974286e-108
2.93247974286e-108
2.93247974286e-108
2.93247974286e-108
2.93247974286e-108
2.93247974286e-108
2.93247974303e-108
2.93247975297e-108
2.93248033937e-108
2.93251363732e-108
2.93440441076e-108
2.97911182811e-108
2.03208827897e-42
4.7176604475e-11
1.02617494887e-07
2.19168299892e-07
2.73826959077e-07
3.21233786803e-07
3.57335741601e-07
3.73036990493e-07
3.73516671678e-07
3.68643394316e-07
3.62785938479e-07
3.56984994408e-07
3.51261193662e-07
3.45753031615e-07
3.40317867661e-07
3.35086986891e-07
3.29909808245e-07
3.24925425839e-07
3.19964643416e-07
3.15186057179e-07
3.10423466925e-07
3.05768794868e-07
3.0127119302e-07
2.96793034164e-07
2.92483876642e-07
2.8818104296e-07
2.8397118613e-07
2.79951232828e-07
2.75942467668e-07
2.72052357718e-07
2.68369377052e-07
2.64729308886e-07
2.61230132429e-07
2.57973596014e-07
2.54779404988e-07
2.5175679911e-07
2.48918876743e-07
2.46371029042e-07
2.43926103696e-07
2.41684764194e-07
2.39666939334e-07
2.37872878148e-07
2.36310486726e-07
2.35078722498e-07
2.33983073514e-07
2.33125281433e-07
2.32504840698e-07
2.32149854609e-07
2.93247974284e-108
2.93247974284e-108
2.93247974284e-108
2.93247974284e-108
2.93247974284e-108
2.93247974284e-108
2.93247974284e-108
2.93247974284e-108
2.93247974284e-108
2.93247974284e-108
2.93247974284e-108
2.93247974285e-108
2.93247974285e-108
2.93247974285e-108
2.93247974285e-108
2.93247974286e-108
2.93247974344e-108
2.93247977754e-108
2.93248177919e-108
2.93259386329e-108
2.93889958457e-108
3.04258470786e-108
1.11945488521e-23
1.12856845742e-08
1.50997329633e-07
2.38463335655e-07
2.93357032005e-07
3.41977388925e-07
3.74181138235e-07
3.84576291421e-07
3.82243210272e-07
3.76372768409e-07
3.700876653e-07
3.63844514409e-07
3.57841748219e-07
3.51946920337e-07
3.46277017959e-07
3.40760477447e-07
3.35320694546e-07
3.30074010807e-07
3.24881710835e-07
3.19804893519e-07
3.14909070072e-07
3.10055396606e-07
3.05371043901e-07
3.00717953235e-07
2.9624530766e-07
2.91798508247e-07
2.87458756628e-07
2.83307244534e-07
2.79193759129e-07
2.75294326074e-07
2.71423330097e-07
2.67695867671e-07
2.64210984291e-07
2.6079398915e-07
2.57543541363e-07