/*--------------------------------*- C++ -*----------------------------------*\
| =========                 |                                                 |
| \\      /  F ield         | foam-extend: Open Source CFD                    |
|  \\    /   O peration     | Version:     4.1                                |
|   \\  /    A nd           | Web:         http://www.foam-extend.org         |
|    \\/     M anipulation  |                                                 |
\*---------------------------------------------------------------------------*/
FoamFile
{
    version     2.0;
    format      ascii;
    class       volScalarField;
    location    "0.0004";
    object      OPlus;
}
// * * * * * * * * * * * * * * * * * * * * * * * * * * * * * * * * * * * * * //

dimensions      [0 0 0 0 0 0 0];

internalField   nonuniform List<scalar> 
8400
(
6.45488963797e-195
6.45488963801e-195
6.45488963805e-195
6.45488963809e-195
6.45488963812e-195
6.45488963816e-195
6.4548896382e-195
6.45488963823e-195
6.45488963827e-195
6.4548896383e-195
6.45488963834e-195
6.45488963837e-195
6.4548896384e-195
6.45488963844e-195
6.45488963847e-195
6.4548896385e-195
6.45488963853e-195
6.45488963856e-195
6.45488963859e-195
6.45488963862e-195
6.45488963865e-195
6.45488963904e-195
6.45488966091e-195
6.45489098533e-195
6.4549678613e-195
6.45952208876e-195
6.55951319515e-195
9.40947160036e-73
1.73959246072e-12
0.000251945367205
0.0450999290637
0.0938745987363
0.123856731347
0.137776387685
0.143409780908
0.145402305132
0.146110194351
0.146474176616
0.146757437018
0.147020395003
0.147255964809
0.147517847358
0.147783357886
0.148055303095
0.148336961765
0.14863135826
0.148940050096
0.149263630094
0.149579995312
0.14993674603
0.150309573567
0.15069955678
0.151104188546
0.151524410254
0.151957570594
0.152399729527
0.152825267026
0.153275639211
0.15372387494
0.154165785599
0.154593776153
0.155002347016
0.155385785717
0.155739279436
0.15602935746
0.156302189334
0.156526661077
0.156698656703
0.156814892763
0.156988362618
6.45488962893e-195
6.45488962894e-195
6.45488962896e-195
6.45488962897e-195
6.45488962899e-195
6.454889629e-195
6.45488962902e-195
6.45488962903e-195
6.45488962905e-195
6.45488962906e-195
6.45488962908e-195
6.45488962909e-195
6.4548896291e-195
6.45488962912e-195
6.45488962913e-195
6.45488962914e-195
6.45488962916e-195
6.45488962917e-195
6.45488962918e-195
6.45488962919e-195
6.45488962924e-195
6.45488963134e-195
6.45488975799e-195
6.45489739724e-195
6.4553346853e-195
6.48084017555e-195
6.82628566991e-195
1.65967447908e-26
3.6090935676e-06
0.0144355586155
0.0686184641808
0.11049257213
0.132935905603
0.142426499912
0.145966459408
0.147074278717
0.147473967896
0.147754423615
0.147991034795
0.148233228909
0.148486264609
0.148751001418
0.149029749738
0.149322155638
0.149628073518
0.149949427073
0.150287795869
0.150642285757
0.151012970932
0.151400608011
0.151803036674
0.152198537239
0.152628799705
0.153070972051
0.153523042944
0.15398017702
0.154438869263
0.154896910652
0.155347021355
0.155785521105
0.156207899376
0.156608176712
0.156979760876
0.157295795611
0.157597209406
0.15785402767
0.158064001041
0.15822490158
0.158335049586
0.158460048497
6.45488962533e-195
6.45488962533e-195
6.45488962534e-195
6.45488962535e-195
6.45488962536e-195
6.45488962537e-195
6.45488962538e-195
6.45488962539e-195
6.4548896254e-195
6.45488962541e-195
6.45488962542e-195
6.45488962542e-195
6.45488962543e-195
6.45488962544e-195
6.45488962545e-195
6.45488962546e-195
6.45488962546e-195
6.45488962547e-195
6.45488962548e-195
6.45488962549e-195
6.45488962567e-195
6.45488963658e-195
6.45489031077e-195
6.45493050628e-195
6.45733067352e-195
6.52791036381e-195
4.60182952779e-73
6.74895823088e-15
8.1923028026e-05
0.0374165525234
0.0892888633847
0.122663159923
0.138599173188
0.14493753833
0.147081628636
0.147742557093
0.148048724181
0.14826898848
0.1484874954
0.148715934905
0.148958066264
0.149214517507
0.14948547412
0.149771967284
0.150075713594
0.15039699496
0.150734620488
0.151090302476
0.151463848454
0.151852166478
0.152255683818
0.152673680456
0.153106824019
0.153526561886
0.15397560061
0.154426888207
0.154878471775
0.155324620861
0.15576174938
0.156186136416
0.156592441666
0.156973953024
0.157327607003
0.157647929139
0.157930219109
0.158148513995
0.158346313821
0.158496265445
0.158597805797
0.158704817945
6.45488962345e-195
6.45488962345e-195
6.45488962346e-195
6.45488962347e-195
6.45488962347e-195
6.45488962348e-195
6.45488962349e-195
6.45488962349e-195
6.4548896235e-195
6.4548896235e-195
6.45488962351e-195
6.45488962352e-195
6.45488962352e-195
6.45488962353e-195
6.45488962353e-195
6.45488962354e-195
6.45488962354e-195
6.45488962355e-195
6.45488962356e-195
6.45488962357e-195
6.45488962436e-195
6.45488967332e-195
6.45489270975e-195
6.45507110071e-195
6.46575198256e-195
6.65115199959e-195
1.25643217976e-46
1.60005283479e-07
0.003964627887
0.056959011556
0.103435088552
0.129787604234
0.141450999199
0.145831315472
0.147236016853
0.147682911445
0.147967919174
0.148199264007
0.148434023806
0.148678789867
0.148936163688
0.149207105656
0.149491810698
0.149791302053
0.150107834744
0.150441209931
0.150790745616
0.151158017587
0.151542128997
0.151940091645
0.152352902611
0.152757888382
0.153195770642
0.153642729149
0.154093148636
0.154545238324
0.154995130671
0.155437585424
0.155869299301
0.156286919167
0.156684791189
0.157033314463
0.157376919646
0.157687034708
0.157959234789
0.158191164536
0.15838031455
0.158524114853
0.158621321713
0.1587193105
6.45488962233e-195
6.45488962233e-195
6.45488962234e-195
6.45488962234e-195
6.45488962235e-195
6.45488962235e-195
6.45488962236e-195
6.45488962236e-195
6.45488962237e-195
6.45488962237e-195
6.45488962238e-195
6.45488962238e-195
6.45488962239e-195
6.45488962239e-195
6.4548896224e-195
6.4548896224e-195
6.4548896224e-195
6.45488962241e-195
6.45488962241e-195
6.45488962246e-195
6.45488962494e-195
6.45488977519e-195
6.45489885334e-195
6.45541970482e-195
6.48574786861e-195
6.8813985748e-195
1.20583354865e-25
5.86088600869e-06
0.0172194988676
0.0715136881053
0.112365159504
0.133592655539
0.142567889964
0.145812121247
0.146815539958
0.147197303524
0.147465315932
0.147741801251
0.148000671108
0.148270606473
0.148552952727
0.148848553316
0.149159447412
0.149484797678
0.149824986919
0.150182051577
0.150555379315
0.150922826639
0.151326926902
0.15174487406
0.152176098603
0.152617137895
0.153068095537
0.153526774556
0.153988747861
0.154449488026
0.154906256668
0.155353128634
0.155765733606
0.156185279491
0.156581817803
0.156951899103
0.157292021009
0.157598796888
0.157867864839
0.158096425691
0.158282204886
0.158423683402
0.158519214162
0.158612745615
6.4548896216e-195
6.45488962161e-195
6.45488962161e-195
6.45488962161e-195
6.45488962162e-195
6.45488962162e-195
6.45488962163e-195
6.45488962163e-195
6.45488962163e-195
6.45488962164e-195
6.45488962164e-195
6.45488962165e-195
6.45488962165e-195
6.45488962165e-195
6.45488962166e-195
6.45488962166e-195
6.45488962166e-195
6.45488962167e-195
6.45488962167e-195
6.45488962176e-195
6.45488962722e-195
6.45488996674e-195
6.45491099804e-195
6.45618303637e-195
6.51090107222e-195
1.77656700496e-73
7.26682436366e-17
3.40635940036e-05
0.029765701099
0.0823772883891
0.117963205854
0.135585883194
0.142691151165
0.145187131202
0.145992579741
0.146367923443
0.146664981584
0.14695388424
0.147249192838
0.147554392738
0.147871146872
0.148200236022
0.148542192756
0.148898561071
0.149271152991
0.149657529193
0.150058478592
0.15047414825
0.150905931885
0.151348949521
0.15180337427
0.152267683949
0.152737655575
0.153213785735
0.153670181615
0.154145803103
0.154614753867
0.155073223023
0.155516000838
0.155942539865
0.156345451909
0.156720153916
0.157062778237
0.157371412144
0.157619433972
0.157850477416
0.158037506584
0.158179287073
0.158274661882
0.158365070187
6.4548896211e-195
6.4548896211e-195
6.45488962111e-195
6.45488962111e-195
6.45488962111e-195
6.45488962112e-195
6.45488962112e-195
6.45488962112e-195
6.45488962113e-195
6.45488962113e-195
6.45488962113e-195
6.45488962114e-195
6.45488962114e-195
6.45488962114e-195
6.45488962114e-195
6.45488962115e-195
6.45488962115e-195
6.45488962115e-195
6.45488962116e-195
6.4548896214e-195
6.45488963632e-195
6.45489055484e-195
6.45494494322e-195
6.45819124134e-195
6.54122386726e-195
6.55149557082e-73
6.79887474251e-14
0.000130760463
0.0407076921878
0.0905436315512
0.12176316462
0.13635627737
0.142186110114
0.144177385132
0.144883135845
0.145275915245
0.145614262453
0.145945998529
0.146283045327
0.146629025904
0.146983678706
0.147349987567
0.147728793942
0.148121646185
0.148527506529
0.148947134344
0.149382316621
0.149829298711
0.150289390971
0.15076220735
0.151245500938
0.151712038782
0.152208962657
0.152705785018
0.15320456618
0.15369808565
0.154183020744
0.154656246322
0.155113430738
0.155549625242
0.155939201662
0.15632349563
0.156674375
0.156987412456
0.157261684005
0.157495758919
0.157685979735
0.157830149384
0.157926755494
0.158016023143
6.45488962073e-195
6.45488962073e-195
6.45488962074e-195
6.45488962074e-195
6.45488962074e-195
6.45488962075e-195
6.45488962075e-195
6.45488962075e-195
6.45488962076e-195
6.45488962076e-195
6.45488962076e-195
6.45488962076e-195
6.45488962077e-195
6.45488962077e-195
6.45488962077e-195
6.45488962077e-195
6.45488962078e-195
6.45488962078e-195
6.45488962079e-195
6.45488962132e-195
6.45488965337e-195
6.45489162132e-195
6.45500776302e-195
6.46206515725e-195
6.60141551182e-195
2.01497130442e-47
6.00183080977e-09
0.000880189474739
0.0503311914746
0.0968503423233
0.124017387903
0.136476025418
0.14128089088
0.142902895523
0.143551533427
0.143968989964
0.144350355129
0.144728216099
0.14511055947
0.145501682406
0.145899745907
0.146308154756
0.146728278335
0.147159003249
0.1476025235
0.148059334815
0.148528712513
0.149010502671
0.149482389813
0.149986235063
0.150499914075
0.151018037057
0.151539116246
0.152062559771
0.15258293206
0.153097734477
0.153579716513
0.154070628097
0.154542866541
0.154994669015
0.155418436623
0.155811533144
0.156170875643
0.156494015635
0.156776161955
0.157014256603
0.157183732748
0.157331347919
0.157430261551
0.157520292595
6.45488962045e-195
6.45488962046e-195
6.45488962046e-195
6.45488962046e-195
6.45488962046e-195
6.45488962047e-195
6.45488962047e-195
6.45488962047e-195
6.45488962047e-195
6.45488962048e-195
6.45488962048e-195
6.45488962048e-195
6.45488962048e-195
6.45488962049e-195
6.45488962049e-195
6.45488962049e-195
6.45488962049e-195
6.4548896205e-195
6.45488962052e-195
6.45488962167e-195
6.45488969217e-195
6.45489400085e-195
6.45514533968e-195
6.47016023098e-195
6.70842920397e-195
6.17539351538e-35
6.91150745469e-07
0.00670944314785
0.0587618928828
0.101677557594
0.125560587893
0.136043162478
0.140033700004
0.141407282795
0.142031006423
0.142479528222
0.142906209998
0.143331029986
0.143761435327
0.144198758136
0.144643434444
0.145095811692
0.145559970298
0.146032511011
0.146517954204
0.146990735544
0.147498481647
0.148017350536
0.14854539539
0.149083448962
0.149626591783
0.150174753627
0.150725810693
0.151252752129
0.151799922429
0.152337330114
0.152862592137
0.153373121881
0.153862876043
0.154329056877
0.154743840138
0.155150232724
0.155521017106
0.155852506148
0.156141514262
0.156385901256
0.156583699569
0.156733814584
0.156835529376
0.156926953828
6.45488962023e-195
6.45488962024e-195
6.45488962024e-195
6.45488962024e-195
6.45488962024e-195
6.45488962025e-195
6.45488962025e-195
6.45488962025e-195
6.45488962025e-195
6.45488962026e-195
6.45488962026e-195
6.45488962026e-195
6.45488962026e-195
6.45488962026e-195
6.45488962027e-195
6.45488962027e-195
6.45488962027e-195
6.45488962027e-195
6.45488962031e-195
6.45488962261e-195
6.45488976152e-195
6.45489814457e-195
6.45537886861e-195
6.48334619691e-195
6.85783632574e-195
5.81627558568e-26
4.21438332493e-06
0.0142939205522
0.0661726814413
0.105359381657
0.126224340577
0.135148397987
0.138513149369
0.139731642363
0.140334803037
0.140823923681
0.141296467366
0.141772895055
0.142251927722
0.142738302041
0.143230663833
0.14373079835
0.144218286386
0.144736419729
0.145264069579
0.145801190162
0.14634836316
0.146904038518
0.147468867927
0.14804234362
0.148596221001
0.149177616392
0.149757031012
0.150334627496
0.150907293351
0.1514699402
0.151994963511
0.152527743598
0.153036810626
0.153518852449
0.153972524925
0.154391826092
0.154773771498
0.155114729711
0.155413337421
0.155641553611
0.155845557514
0.155999609854
0.156103945838
0.156195184664
6.45488962006e-195
6.45488962006e-195
6.45488962006e-195
6.45488962007e-195
6.45488962007e-195
6.45488962007e-195
6.45488962007e-195
6.45488962007e-195
6.45488962008e-195
6.45488962008e-195
6.45488962008e-195
6.45488962008e-195
6.45488962008e-195
6.45488962009e-195
6.45488962009e-195
6.45488962009e-195
6.45488962009e-195
6.45488962009e-195
6.45488962017e-195
6.4548896243e-195
6.45488987025e-195
6.45490441171e-195
6.45572108682e-195
6.50146127209e-195
2.38997126474e-74
6.81070241693e-19
1.51025619636e-05
0.022406127963
0.0727415362306
0.108196128609
0.126274521124
0.13389158393
0.136716560199
0.137833083944
0.138464571817
0.13900831649
0.139536165542
0.14006505293
0.140596939067
0.141111994826
0.141655739795
0.142205146364
0.142760885591
0.1433260845
0.143898212712
0.144478096
0.145067011698
0.145640802029
0.146245326784
0.146853073728
0.147466500294
0.148078526175
0.148690240548
0.149275226572
0.149874247544
0.15046174306
0.151034686553
0.151586458842
0.152116504013
0.152593488282
0.153063044048
0.153497934866
0.153892531686
0.154244368695
0.154551408476
0.154810849526
0.155021135509
0.155180426612
0.15528804703
0.155379199189
6.45488961991e-195
6.45488961992e-195
6.45488961992e-195
6.45488961992e-195
6.45488961992e-195
6.45488961992e-195
6.45488961993e-195
6.45488961993e-195
6.45488961993e-195
6.45488961993e-195
6.45488961993e-195
6.45488961994e-195
6.45488961994e-195
6.45488961994e-195
6.45488961994e-195
6.45488961994e-195
6.45488961994e-195
6.45488961995e-195
6.45488962008e-195
6.45488962828e-195
6.45489014039e-195
6.45492120951e-195
6.45677514755e-195
6.52171484179e-195
3.08953307129e-73
6.46584288959e-16
4.66642507252e-05
0.0302743672478
0.0784133250139
0.110359133263
0.125747882726
0.132305995914
0.134757502648
0.135776404828
0.136443105741
0.137042495674
0.13763099316
0.138195871241
0.13878364783
0.139374998191
0.139969204529
0.140569575542
0.141175243491
0.141788829567
0.14238546743
0.143013323671
0.143644925542
0.14428250965
0.144926144287
0.145571933563
0.146197570222
0.146844998183
0.147488031962
0.148126762104
0.148753444271
0.149367973319
0.149939273804
0.150515819798
0.151064637657
0.15158410276
0.152071003141
0.152519305626
0.152901366989
0.153265432942
0.153583657097
0.153852081336
0.154068519476
0.154232237453
0.154342638069
0.154433614081
6.45488961979e-195
6.4548896198e-195
6.4548896198e-195
6.4548896198e-195
6.4548896198e-195
6.4548896198e-195
6.4548896198e-195
6.45488961981e-195
6.45488961981e-195
6.45488961981e-195
6.45488961981e-195
6.45488961981e-195
6.45488961982e-195
6.45488961982e-195
6.45488961982e-195
6.45488961982e-195
6.45488961982e-195
6.45488961983e-195
6.45488962013e-195
6.45488963858e-195
6.45489076192e-195
6.45495642072e-195
6.45882065091e-195
6.55202501377e-195
7.60847999751e-73
1.86957120976e-13
0.000142010293791
0.038182603391
0.0836504820507
0.111732346515
0.124932114515
0.130428001875
0.132558470151
0.133550957818
0.134270404206
0.134915344673
0.135569692714
0.136218393819
0.13686545586
0.137512344143
0.138163160864
0.138816361968
0.139452185258
0.140115380283
0.14078315988
0.141456062013
0.142133365846
0.142791176552
0.143476940002
0.144161532906
0.144847956773
0.145529621376
0.146182445094
0.14685128895
0.147507317822
0.148146781206
0.148769275401
0.14936705005
0.149913032313
0.150450562227
0.15095298245
0.151416000661
0.151836927642
0.152212662392
0.15253976971
0.152790739916
0.153014175073
0.15318283416
0.153296482959
0.153387537868
6.45488961969e-195
6.45488961969e-195
6.45488961969e-195
6.4548896197e-195
6.4548896197e-195
6.4548896197e-195
6.4548896197e-195
6.4548896197e-195
6.4548896197e-195
6.45488961971e-195
6.45488961971e-195
6.45488961971e-195
6.45488961971e-195
6.45488961971e-195
6.45488961971e-195
6.45488961972e-195
6.45488961972e-195
6.45488961973e-195
6.45488962037e-195
6.45488965883e-195
6.45489198999e-195
6.45502801438e-195
6.46317453063e-195
6.61890969337e-195
4.33111436499e-47
1.22327485515e-08
0.000773236248405
0.046078664451
0.0880945978183
0.112491294878
0.123763593193
0.128375797981
0.130207679033
0.13117026809
0.131947753017
0.132682676753
0.133403695062
0.134118699766
0.134828350166
0.135517440958
0.136224679929
0.136933679636
0.137644986
0.138358376256
0.139053972349
0.139775615314
0.140498351534
0.141223466616
0.141950205972
0.142651942084
0.143376643463
0.144093700621
0.144803062691
0.145504893268
0.146166918484
0.146833492006
0.147478262195
0.148098650606
0.148690098238
0.149221656914
0.149742097932
0.150221155069
0.15065628955
0.151042297144
0.151377771387
0.151660251192
0.151888822844
0.15206351886
0.15215479808
0.152275331593
6.4548896196e-195
6.4548896196e-195
6.45488961961e-195
6.45488961961e-195
6.45488961961e-195
6.45488961961e-195
6.45488961961e-195
6.45488961961e-195
6.45488961962e-195
6.45488961962e-195
6.45488961962e-195
6.45488961962e-195
6.45488961962e-195
6.45488961962e-195
6.45488961963e-195
6.45488961963e-195
6.45488961963e-195
6.45488961965e-195
6.4548896211e-195
6.45488970816e-195
6.45489496097e-195
6.45519790924e-195
6.47296607908e-195
6.74589439298e-195
1.16198755818e-34
9.26026622644e-07
0.00629414764557
0.0536701288731
0.0918195141074
0.112786353764
0.12227768141
0.126129408109
0.127739448151
0.128702845228
0.129536574664
0.130336945985
0.131128448521
0.13188814103
0.132664180015
0.133435192185
0.134203619114
0.134971572334
0.135717060297
0.136485672461
0.137254224052
0.13802364776
0.138771315796
0.139541103136
0.140310655549
0.141075573761
0.141837559874
0.142566822854
0.143311717619
0.144042507793
0.144759130515
0.145428511008
0.146101014964
0.146743672586
0.147354746981
0.147930344718
0.14844091795
0.148936186601
0.149383268531
0.149780675161
0.150125931765
0.15041691795
0.150652274803
0.150830791985
0.150951976731
0.151045071086
6.45488961953e-195
6.45488961953e-195
6.45488961953e-195
6.45488961953e-195
6.45488961953e-195
6.45488961953e-195
6.45488961954e-195
6.45488961954e-195
6.45488961954e-195
6.45488961954e-195
6.45488961954e-195
6.45488961954e-195
6.45488961954e-195
6.45488961955e-195
6.45488961955e-195
6.45488961955e-195
6.45488961955e-195
6.45488961961e-195
6.45488962282e-195
6.45488981407e-195
6.45490112462e-195
6.4555374425e-195
6.49144102674e-195
6.95078470512e-195
1.90854658888e-22
6.10267329327e-06
0.0143129154695
0.0609166691476
0.0947409299159
0.112537928062
0.120451827321
0.123670320599
0.125141490778
0.12613403364
0.127029724772
0.12789896385
0.128737484559
0.129585460482
0.130425662009
0.131261421304
0.132069868947
0.132895185761
0.133721324162
0.134542671147
0.135342949345
0.136162572699
0.136981680304
0.137796323916
0.138584861625
0.139392822698
0.140191122477
0.140981791953
0.141734584717
0.142498853731
0.143242397009
0.143964231071
0.144636027271
0.145302376662
0.145934768501
0.146529976998
0.14708550658
0.147566351792
0.148026097614
0.14843577071
0.148791259289
0.149090518328
0.149332303504
0.149515594534
0.149639874818
0.149732769233
6.45488961946e-195
6.45488961946e-195
6.45488961946e-195
6.45488961946e-195
6.45488961947e-195
6.45488961947e-195
6.45488961947e-195
6.45488961947e-195
6.45488961947e-195
6.45488961947e-195
6.45488961947e-195
6.45488961948e-195
6.45488961948e-195
6.45488961948e-195
6.45488961948e-195
6.45488961948e-195
6.45488961948e-195
6.4548896196e-195
6.45488962629e-195
6.45489003032e-195
6.45491440302e-195
6.45635430157e-195
6.51701600824e-195
1.92664057128e-73
5.89816655411e-17
2.63022644592e-05
0.0229623821815
0.0673865596198
0.0969153820956
0.111806852732
0.118318365793
0.121055540247
0.122438242514
0.123474718704
0.12441930343
0.125359890888
0.126285335969
0.127201606813
0.128086101501
0.128984789287
0.129876132358
0.130740273568
0.131621640515
0.13249938944
0.13337348963
0.134221686677
0.135089258118
0.135951294748
0.136783023377
0.137631125857
0.138469145836
0.139295340252
0.140081109507
0.140877118474
0.141649930436
0.142399120086
0.143092721918
0.143782000099
0.144436421347
0.145049506191
0.145618989291
0.146142035169
0.14658869642
0.147009503144
0.147374912221
0.147682748951
0.147931148713
0.148119165441
0.148246919975
0.148340349247
6.4548896194e-195
6.4548896194e-195
6.4548896194e-195
6.45488961941e-195
6.45488961941e-195
6.45488961941e-195
6.45488961941e-195
6.45488961941e-195
6.45488961941e-195
6.45488961941e-195
6.45488961941e-195
6.45488961942e-195
6.45488961942e-195
6.45488961942e-195
6.45488961942e-195
6.45488961942e-195
6.45488961943e-195
6.45488961975e-195
6.4548896389e-195
6.45489078849e-195
6.45495726699e-195
6.45881632934e-195
6.55430338035e-195
7.1981630632e-73
8.26139115003e-14
0.000100657112581
0.0321542324634
0.073023293771
0.0983521871268
0.110610475204
0.115954743261
0.11829530856
0.119635647894
0.120710031545
0.121748535188
0.122763297997
0.123740737926
0.124726685166
0.125698894915
0.126642047058
0.127594781118
0.128541266694
0.12945634801
0.130390159373
0.13131485262
0.132236337373
0.133127280651
0.134032799817
0.134933370721
0.135796450048
0.136674857925
0.137536636103
0.138382954082
0.139183807397
0.139985965523
0.140760309257
0.141505465057
0.142189564143
0.142862704006
0.143494806569
0.14408204901
0.144619419473
0.145077444769
0.14550876103
0.145882926296
0.146198102949
0.146453059775
0.146646439324
0.146777941197
0.146871628229
6.45488961935e-195
6.45488961935e-195
6.45488961935e-195
6.45488961935e-195
6.45488961935e-195
6.45488961936e-195
6.45488961936e-195
6.45488961936e-195
6.45488961936e-195
6.45488961936e-195
6.45488961936e-195
6.45488961936e-195
6.45488961936e-195
6.45488961937e-195
6.45488961937e-195
6.45488961937e-195
6.45488961938e-195
6.45488962022e-195
6.45488967014e-195
6.45489265116e-195
6.45506420643e-195
6.4651099298e-195
6.64785237567e-195
7.92110843863e-47
3.18877857789e-08
0.000659171347212
0.0413482308357
0.077996498091
0.0990881923926
0.109023236799
0.113384856284
0.115415667938
0.116740071084
0.117903772874
0.119019505684
0.120090572707
0.121161265561
0.122194066716
0.123233279393
0.124261429006
0.125255030108
0.126259144466
0.127256184587
0.128219843791
0.129199462981
0.130168199758
0.13110522198
0.13205752066
0.132998723606
0.133901502192
0.134817043137
0.135713711997
0.136593297957
0.137423205514
0.138255304897
0.139056907665
0.139825206281
0.140529661189
0.141223933399
0.141872615032
0.142474229082
0.1429962559
0.143496936224
0.143938043342
0.144320384134
0.144642520792
0.144903639657
0.145102295381
0.14523785328
0.145332383946
6.4548896193e-195
6.4548896193e-195
6.4548896193e-195
6.45488961931e-195
6.45488961931e-195
6.45488961931e-195
6.45488961931e-195
6.45488961931e-195
6.45488961931e-195
6.45488961931e-195
6.45488961931e-195
6.45488961932e-195
6.45488961932e-195
6.45488961932e-195
6.45488961932e-195
6.45488961932e-195
6.45488961936e-195
6.45488962177e-195
6.45488976468e-195
6.45489821131e-195
6.45537446646e-195
6.48234085763e-195
6.85654440269e-195
3.84442775573e-31
2.23706795606e-06
0.00747209992874
0.0500224567157
0.0818679108783
0.0991789890446
0.107148766788
0.110681211297
0.112491716881
0.113827884733
0.11505639118
0.116228486936
0.117394809147
0.118516725637
0.119641001169
0.120724035729
0.121815234951
0.122891206116
0.123931416699
0.124984501457
0.126022927673
0.127029886029
0.128050807619
0.12903343855
0.130029319622
0.131010959282
0.131952193807
0.132904549162
0.133834955749
0.134744759717
0.135605242988
0.136463159549
0.137289117178
0.138053665045
0.138806756754
0.139518745891
0.140184991998
0.14080250272
0.141338118057
0.141848043427
0.142299158058
0.142690534751
0.143020054338
0.14328717764
0.143490678224
0.143629910843
0.143725131854
6.45488961926e-195
6.45488961926e-195
6.45488961926e-195
6.45488961926e-195
6.45488961926e-195
6.45488961927e-195
6.45488961927e-195
6.45488961927e-195
6.45488961927e-195
6.45488961927e-195
6.45488961927e-195
6.45488961927e-195
6.45488961927e-195
6.45488961927e-195
6.45488961928e-195
6.45488961928e-195
6.45488961939e-195
6.45488962592e-195
6.45489000144e-195
6.45491170904e-195
6.45615479354e-195
6.51537017905e-195
1.30179801514e-73
9.2846621762e-18
1.72209995076e-05
0.0175552138457
0.0576448984542
0.0847089826015
0.0985820502123
0.104919899046
0.107834808301
0.109516397252
0.11088866535
0.112167433372
0.113431369779
0.114648828407
0.115861581825
0.117032041258
0.118204633596
0.119334715163
0.120470012438
0.121568791421
0.122674246428
0.123767335374
0.124822450174
0.125888758623
0.126915038622
0.127955131155
0.128977471483
0.129957963661
0.13094388709
0.131909142058
0.132821927841
0.13373515407
0.134617851809
0.135467792349
0.136253927903
0.137026142211
0.137753352534
0.13843503499
0.139036891959
0.139614931461
0.1401357475
0.140597735952
0.14099717988
0.141333940024
0.141607164758
0.14178418849
0.141927920059
0.142023188583
6.45488961922e-195
6.45488961922e-195
6.45488961922e-195
6.45488961922e-195
6.45488961923e-195
6.45488961923e-195
6.45488961923e-195
6.45488961923e-195
6.45488961923e-195
6.45488961923e-195
6.45488961923e-195
6.45488961923e-195
6.45488961923e-195
6.45488961924e-195
6.45488961924e-195
6.45488961924e-195
6.45488961965e-195
6.45488964343e-195
6.454891046e-195
6.45497069009e-195
6.45949315834e-195
6.56642711021e-195
7.94218998035e-73
1.3565409364e-13
9.23442110222e-05
0.0282432858236
0.0643707969181
0.0865297670621
0.0974274177904
0.10243796074
0.104873639474
0.106489815479
0.107918420542
0.109269581987
0.110604058361
0.111889381721
0.113170886722
0.11440539615
0.115640227155
0.116829639729
0.118025359303
0.119177515637
0.120339027802
0.121480533342
0.122584453174
0.123695999727
0.124765807605
0.125844421724
0.126905924667
0.127919471379
0.128940476293
0.1299368842
0.130878443443
0.131818915313
0.132726806655
0.133570330853
0.134404151814
0.135194046866
0.135939013128
0.136603301541
0.137247211866
0.137836715742
0.138366704792
0.138836627821
0.139244426084
0.139556467277
0.139834879683
0.140046388943
0.140192457685
0.140288354941
6.45488961919e-195
6.45488961919e-195
6.45488961919e-195
6.45488961919e-195
6.45488961919e-195
6.45488961919e-195
6.45488961919e-195
6.45488961919e-195
6.4548896192e-195
6.4548896192e-195
6.4548896192e-195
6.4548896192e-195
6.4548896192e-195
6.4548896192e-195
6.4548896192e-195
6.45488961923e-195
6.45488962061e-195
6.45488970219e-195
6.45489448985e-195
6.45516257949e-195
6.47024499168e-195
6.71824544975e-195
4.45302707305e-36
2.23477818644e-07
0.00104096826791
0.0385334438433
0.0697527558744
0.0872715584641
0.0957480791651
0.0997099221813
0.10185752315
0.103478503551
0.10495362973
0.106396455795
0.107781501281
0.109155740412
0.110479496925
0.111776004003
0.113068720618
0.114317996303
0.115566412979
0.116795912774
0.117982820176
0.119173535173
0.120323889638
0.121480129489
0.122591926714
0.123708008633
0.124803333011
0.125852817818
0.126904584312
0.127900181089
0.128897639122
0.129861936236
0.130762148058
0.131655946586
0.132508028743
0.133315116503
0.13404425037
0.134752691299
0.135406532873
0.136003968319
0.136542835683
0.136989665559
0.137404807117
0.137754005155
0.138035900773
0.138251972156
0.138401360122
0.138497745582
6.45488961915e-195
6.45488961916e-195
6.45488961916e-195
6.45488961916e-195
6.45488961916e-195
6.45488961916e-195
6.45488961916e-195
6.45488961916e-195
6.45488961916e-195
6.45488961916e-195
6.45488961917e-195
6.45488961917e-195
6.45488961917e-195
6.45488961917e-195
6.45488961917e-195
6.45488961926e-195
6.45488962434e-195
6.45488991668e-195
6.45490658218e-195
6.45581178395e-195
6.50410241158e-195
7.09432909712e-195
3.02202535661e-20
7.10177311794e-06
0.0107469704903
0.0477831899193
0.0736752158424
0.0873087092506
0.0937046234455
0.096883384415
0.0988461738089
0.100472229756
0.102029284574
0.10352181319
0.104976327706
0.106415640694
0.107801481968
0.109177320557
0.110505456054
0.111808544152
0.113109759015
0.11436598733
0.115621616414
0.116833578347
0.118050288491
0.11924753891
0.120396049047
0.121551991621
0.122654960044
0.123761918747
0.124841022313
0.125863312506
0.126883524124
0.127869482604
0.128790425703
0.129700846695
0.130569122815
0.131360747975
0.132133929671
0.132853940628
0.133518595477
0.134092472082
0.13464045515
0.135125248891
0.135545547096
0.135899589665
0.136186547135
0.136407500398
0.13652819706
0.136626139513
6.45488961913e-195
6.45488961913e-195
6.45488961913e-195
6.45488961913e-195
6.45488961913e-195
6.45488961913e-195
6.45488961913e-195
6.45488961913e-195
6.45488961913e-195
6.45488961914e-195
6.45488961914e-195
6.45488961914e-195
6.45488961914e-195
6.45488961914e-195
6.45488961915e-195
6.45488961952e-195
6.45488964159e-195
6.45489093445e-195
6.45496385592e-195
6.45904351336e-195
6.56234131212e-195
6.7304372681e-73
2.88009904206e-14
5.95416962951e-05
0.0225336736023
0.0556319528336
0.0761298267965
0.0864137957424
0.0913455065587
0.0939824640186
0.0958349798328
0.0975226546143
0.0991247995606
0.100682217878
0.10219887329
0.103699350442
0.105144715898
0.106577331291
0.107961114789
0.109314666965
0.110663543698
0.111965442069
0.113266328908
0.114519553064
0.115776041233
0.116984219125
0.11819450891
0.11935147847
0.120513616543
0.121649538932
0.12272770913
0.123803249067
0.124845189012
0.12582131346
0.126789163128
0.127715206773
0.128565894686
0.12940141912
0.130184393319
0.130881154485
0.131554576939
0.132168133897
0.13272119874
0.133211562701
0.133602266433
0.133962296823
0.134254920063
0.13447953205
0.134636764376
0.134734730976
6.4548896191e-195
6.4548896191e-195
6.4548896191e-195
6.4548896191e-195
6.4548896191e-195
6.4548896191e-195
6.45488961911e-195
6.45488961911e-195
6.45488961911e-195
6.45488961911e-195
6.45488961911e-195
6.45488961911e-195
6.45488961911e-195
6.45488961911e-195
6.45488961914e-195
6.45488962082e-195
6.45488971768e-195
6.45489530446e-195
6.45520424466e-195
6.47232342813e-195
6.7473985111e-195