/*--------------------------------*- C++ -*----------------------------------*\
| =========                 |                                                 |
| \\      /  F ield         | foam-extend: Open Source CFD                    |
|  \\    /   O peration     | Version:     4.1                                |
|   \\  /    A nd           | Web:         http://www.foam-extend.org         |
|    \\/     M anipulation  |                                                 |
\*---------------------------------------------------------------------------*/
FoamFile
{
    version     2.0;
    format      ascii;
    class       volScalarField;
    location    "0.0004";
    object      p;
}
// * * * * * * * * * * * * * * * * * * * * * * * * * * * * * * * * * * * * * //

dimensions      [1 -1 -2 0 0 0 0];

internalField   nonuniform List<scalar> 
8400
(
66.7281849748
66.7281849748
66.7281849749
66.7281849749
66.728184975
66.728184975
66.7281849751
66.7281849751
66.7281849752
66.7281849752
66.7281849753
66.7281849753
66.7281849753
66.7281849754
66.7281849754
66.7281849755
66.7281849755
66.7281849755
66.7281849756
66.7281849756
66.7281849757
66.7281849762
66.7281850049
66.7281867426
66.7282876064
66.7342629073
66.8654546302
139.685422291
1296.38490382
6542.01023061
28221.8805094
71744.7305955
139597.909959
208518.355619
251570.130964
268001.088575
272216.182706
272966.234262
272935.658544
272761.845117
272552.342442
272377.652887
272208.815635
272052.773993
271911.775267
271787.475116
271680.252765
271595.047892
271503.517639
271446.482109
271389.324419
271337.782508
271293.302596
271261.526457
271240.27532
271229.884011
271201.141959
271199.111933
271199.455691
271210.731333
271230.607008
271256.641081
271286.089961
271326.937985
271349.621789
271401.866275
271448.77227
271490.363439
271523.691939
272543.514571
66.7281849629
66.7281849629
66.7281849629
66.728184963
66.728184963
66.728184963
66.728184963
66.728184963
66.7281849631
66.7281849631
66.7281849631
66.7281849631
66.7281849631
66.7281849632
66.7281849632
66.7281849632
66.7281849632
66.7281849632
66.7281849632
66.7281849633
66.7281849633
66.7281849661
66.7281851322
66.7281951552
66.728768892
66.7622329602
67.2154691648
494.210118565
2925.36872012
14405.7508228
43546.107061
99144.2910984
172432.992927
233297.196216
263994.890354
273897.279336
276536.135567
277463.51119
278000.709008
278461.577
278894.307303
279305.506698
279698.927996
280074.928861
280435.269537
280781.809173
281117.725409
281441.241938
281750.340707
282043.500844
282322.224979
282564.20945
282815.805303
283049.765991
283270.525249
283473.620488
283660.030264
283835.707015
283999.752378
284154.401437
284296.940791
284424.487276
284546.86504
284640.449648
284745.16695
284826.677059
284896.976067
284961.885524
285024.80607
285829.922772
66.7281849582
66.7281849582
66.7281849582
66.7281849582
66.7281849582
66.7281849582
66.7281849583
66.7281849583
66.7281849583
66.7281849583
66.7281849583
66.7281849583
66.7281849583
66.7281849583
66.7281849583
66.7281849583
66.7281849584
66.7281849584
66.7281849584
66.7281849584
66.7281849586
66.7281849729
66.7281858575
66.7282385954
66.7313876962
66.8239906436
101.057033105
1015.45550025
5164.66845424
24031.2012925
63973.0343084
130095.776499
202359.216557
250815.529598
270502.974399
276085.138115
277718.812463
278468.70826
279037.706328
279551.198107
280032.647374
280485.709838
280912.18383
281313.42908
281692.526082
282050.891143
282389.22293
282709.770222
283011.853745
283291.988648
283551.770405
283795.143942
284033.480505
284238.269941
284449.678508
284633.553385
284799.226959
284950.764303
285093.475405
285226.049056
285347.552011
285458.599935
285559.534251
285646.145959
285729.34793
285785.990358
285855.767755
285903.612147
285944.735419
286587.410463
66.7281849557
66.7281849557
66.7281849557
66.7281849557
66.7281849557
66.7281849558
66.7281849558
66.7281849558
66.7281849558
66.7281849558
66.7281849558
66.7281849558
66.7281849558
66.7281849558
66.7281849558
66.7281849558
66.7281849558
66.7281849558
66.7281849559
66.7281849559
66.7281849569
66.7281850212
66.7281890051
66.72842306
66.7424367393
66.9856878496
247.17939042
2137.05156445
10188.1717019
34911.1107454
84631.745985
156511.030753
223062.64917
260200.255924
273008.566142
276409.474499
277570.958794
278221.323956
278758.510429
279251.085858
279708.83509
280135.119352
280532.140273
280901.396885
281246.520353
281568.146973
281867.925766
282149.585365
282411.522185
282649.499537
282874.410339
283066.911788
283269.372684
283454.832722
283621.720913
283771.035596
283904.965932
284027.642666
284144.052347
284250.948862
284351.695377
284417.781157
284499.492081
284568.882001
284633.071511
284689.908113
284737.582943
284775.230779
284806.673143
285363.179816
66.7281849542
66.7281849543
66.7281849543
66.7281849543
66.7281849543
66.7281849543
66.7281849543
66.7281849543
66.7281849543
66.7281849543
66.7281849543
66.7281849543
66.7281849543
66.7281849543
66.7281849543
66.7281849543
66.7281849543
66.7281849544
66.7281849544
66.7281849544
66.7281849577
66.7281851548
66.7281970656
66.7288804405
66.7686720199
67.2877791652
569.400431225
3141.52892468
15503.3857989
46071.2572879
103515.850986
177206.081346
236429.5417
264862.993371
273567.315374
275877.906367
276757.733719
277357.383401
277851.655043
278308.82468
278731.242663
279121.14085
279483.792097
279821.532387
280135.117768
280425.808529
280699.039117
280932.943386
281169.791449
281379.231069
281569.540201
281745.154758
281910.255286
282068.685009
282217.493418
282348.820289
282459.330424
282560.142344
282638.703665
282737.340698
282818.206347
282888.140528
282947.497327
282999.976962
283047.649966
283090.901855
283127.442749
283156.884208
283180.634453
283686.700426
66.7281849533
66.7281849533
66.7281849533
66.7281849533
66.7281849533
66.7281849533
66.7281849533
66.7281849533
66.7281849533
66.7281849533
66.7281849533
66.7281849533
66.7281849534
66.7281849534
66.7281849534
66.7281849534
66.7281849534
66.7281849534
66.7281849534
66.7281849535
66.7281849607
66.7281854061
66.7282129999
66.7298819573
66.8016738762
80.0767166868
857.882765106
4302.11632636
20680.4620036
57058.888421
120125.001655
193115.51745
244936.319425
266919.504017
273127.724314
274817.067098
275546.880976
276071.750699
276532.982824
276955.597136
277345.468371
277705.061218
278036.213952
278342.701952
278627.830705
278889.963779
279130.979422
279352.682583
279558.291065
279744.491849
279912.612964
280065.097734
280205.921594
280346.675917
280461.316964
280582.168165
280678.051847
280759.536642
280834.203414
280911.014645
280982.493364
281042.35508
281088.107007
281131.569012
281152.752378
281197.708238
281232.214618
281257.936746
281274.251932
281740.584297
66.7281849526
66.7281849526
66.7281849526
66.7281849526
66.7281849527
66.7281849527
66.7281849527
66.7281849527
66.7281849527
66.7281849527
66.7281849527
66.7281849527
66.7281849527
66.7281849527
66.7281849527
66.7281849527
66.7281849527
66.7281849527
66.7281849527
66.728184953
66.7281849726
66.7281861777
66.7282575371
66.7325167904
66.8414584117
116.363569393
1125.77083711
5743.87258065
26028.1126258
67778.8781559
134897.175567
205348.450354
250323.864289
267482.802954
272076.566937
273379.485341
274007.191512
274485.513898
274910.337189
275299.254052
275655.640397
275983.385911
276284.320834
276563.508123
276818.665316
277051.3625
277265.508857
277461.020821
277642.386622
277809.896901
277967.086144
278083.920298
278212.163198
278325.286234
278433.645065
278531.143629
278615.106444
278687.011943
278750.087048
278816.082625
278861.276023
278917.569783
278950.296181
278973.767622
278998.028759
279026.195281
279052.186085
279070.2244
279078.322451
279514.788326
66.7281849522
66.7281849522
66.7281849522
66.7281849522
66.7281849522
66.7281849522
66.7281849522
66.7281849522
66.7281849522
66.7281849522
66.7281849522
66.7281849522
66.7281849522
66.7281849522
66.7281849522
66.7281849522
66.7281849522
66.7281849522
66.7281849522
66.7281849529
66.728184995
66.728187577
66.7283399588
66.7375994994
66.9204318908
191.441905433
1776.82692777
8105.83283349
31635.7885589
78300.7417946
147938.247206
214974.236724
253645.429792
267106.055769
270584.675136
271621.587221
272167.508827
272597.994812
272982.611116
273335.685145
273658.572045
273955.554308
274228.716292
274477.78132
274704.098462
274910.069896
275097.526972
275275.565598
275422.25529
275576.339009
275710.176547
275825.373265
275926.326163
276018.960837
276103.297401
276184.810023
276235.95465
276301.84082
276355.138182
276404.378218
276446.016957
276480.468354
276509.842162
276535.233739
276550.429592
276566.09506
276559.598811
276574.743259
276577.756895
277000.865787
66.7281849518
66.7281849518
66.7281849518
66.7281849518
66.7281849518
66.7281849518
66.7281849518
66.7281849518
66.7281849518
66.7281849518
66.7281849518
66.7281849518
66.7281849518
66.7281849518
66.7281849518
66.7281849518
66.7281849518
66.7281849518
66.7281849519
66.7281849534
66.7281850459
66.728190699
66.7285204641
66.7482205107
67.0608374843
323.542732188
2421.14681069
11602.4550205
37613.717856
88750.578948
159887.10426
222555.077375
255459.475308
266031.530913
268697.875602
269534.16775
270013.323926
270403.445101
270754.405085
271074.768068
271367.20225
271633.361922
271877.345493
272096.736293
272301.081604
272462.966531
272630.685782
272779.964722
272917.598843
273044.552003
273154.326136
273248.327868
273336.885565
273394.608767
273470.846301
273530.303853
273580.257824
273624.402214
273662.943421
273703.507184
273715.956305
273742.97031
273759.744353
273771.798139
273778.599133
273780.028992
273778.051419
273775.374892
273774.649531
274183.673935
66.7281849515
66.7281849515
66.7281849515
66.7281849515
66.7281849515
66.7281849515
66.7281849515
66.7281849515
66.7281849515
66.7281849515
66.7281849515
66.7281849515
66.7281849515
66.7281849515
66.7281849515
66.7281849515
66.7281849515
66.7281849515
66.7281849516
66.7281849546
66.7281851369
66.7281961357
66.728826862
66.7655209452
67.2568646953
524.257736059
3010.84796483
14711.2773325
44071.8328035
99278.480994
170760.084477
228534.358387
256205.725309
264475.473512
266503.0192
267182.356433
267592.750868
267935.515513
268240.736856
268520.170518
268774.213453
269010.959636
269208.181732
269405.958018
269578.086543
269729.461073
269865.503743
269988.442035
270100.996588
270208.915168
270280.396558
270361.424754
270424.171211
270481.428436
270532.658514
270582.138699
270601.940398
270639.648987
270662.74234
270678.60791
270688.942096
270696.154617
270704.225996
270708.90954
270715.062291
270694.051649
270688.560498
270671.556097
270657.075994
271038.369258
66.7281849513
66.7281849513
66.7281849513
66.7281849513
66.7281849513
66.7281849513
66.7281849513
66.7281849513
66.7281849513
66.7281849513
66.7281849513
66.7281849513
66.7281849513
66.7281849513
66.7281849513
66.7281849513
66.7281849513
66.7281849513
66.7281849514
66.7281849568
66.7281852795
66.7282043584
66.7292758639
66.7892885382
69.161426374
747.980903881
3721.09983513
18106.425895
51115.8809741
109974.735745
180717.129756
233170.979944
256052.718773
262453.849782
264006.991628
264559.724539
264909.470961
265203.223428
265468.759341
265688.173911
265906.583744
266099.197798
266273.294675
266430.756917
266569.21486
266689.793696
266802.55753
266883.057943
266977.22353
267053.852433
267121.33021
267175.682262
267227.170797
267251.127925
267288.176569
267313.117331
267333.533953
267348.565943
267365.763752
267354.106413
267356.964396
267349.844926
267340.739054
267331.373116
267320.990681
267306.767606
267288.62056
267266.358369
267242.826053
267592.124902
66.7281849511
66.7281849511
66.7281849511
66.7281849511
66.7281849511
66.7281849511
66.7281849511
66.7281849511
66.7281849511
66.7281849511
66.7281849511
66.7281849511
66.7281849511
66.7281849511
66.7281849511
66.7281849511
66.7281849511
66.7281849511
66.7281849513
66.7281849621
66.728185634
66.7282263977
66.7306588273
66.8158619086
89.8059301339
932.010244503
4660.61211462
21894.6389913
58810.1003227
120922.532499
189765.313101
236575.143005
255222.053848
260083.769924
261254.838893
261688.285304
261978.80611
262203.157769
262419.926718
262608.309865
262773.978466
262922.328959
263054.299034
263177.895735
263265.089679
263362.13224
263439.021254
263506.178993
263565.244019
263619.377919
263646.524473
263687.018474
263715.744364
263739.424538
263750.24609
263761.101648
263747.337903
263755.091499
263748.806831
263738.004207
263722.982281
263707.546959
263667.009541
263649.618889
263628.258798
263606.162205
263580.094652
263548.095618
263511.676368
263827.428813
66.7281849509
66.7281849509
66.7281849509
66.7281849509
66.7281849509
66.7281849509
66.7281849509
66.7281849509
66.7281849509
66.7281849509
66.7281849509
66.7281849509
66.7281849509
66.728184951
66.728184951
66.728184951
66.728184951
66.728184951
66.7281849514
66.7281849756
66.7281864494
66.728272596
66.7333425971
66.8556298822
125.230877643
1181.85553438
5954.48640634
26318.7286401
67407.4004376
131981.282349
198041.918198
238876.302373
253723.27095
257360.952617
258228.732302
258544.175281
258774.30844
258962.520687
259124.200113
259261.780194
259380.955083
259487.272715
259561.608813
259645.427744
259712.444075
259768.204002
259817.454635
259838.390447
259874.558833
259895.152889
259911.697495
259925.091377
259914.039809
259919.518548
259912.610077
259898.81545
259890.080238
259882.666506
259839.086402
259812.968415
259784.739641
259752.789658
259718.178021
259682.112944
259651.95804
259600.010227
259568.908563
259526.386449
259478.021727
259759.952258
66.7281849508
66.7281849508
66.7281849508
66.7281849508
66.7281849508
66.7281849508
66.7281849508
66.7281849508
66.7281849508
66.7281849508
66.7281849508
66.7281849508
66.7281849508
66.7281849508
66.7281849508
66.7281849508
66.7281849508
66.7281849508
66.7281849517
66.7281850021
66.7281880607
66.7283665293
66.7390550349
66.9433848503
203.480903458
1853.6111127
8168.92561413
31532.2184721
76855.9641552
143134.677821
205387.767584
240181.365973
251664.552033
254308.661369
254934.17664
255175.091562
255334.150155
255461.960535
255571.07738
255644.144949
255718.405008
255776.318472
255823.034713
255865.278168
255880.233695
255907.071655
255919.908207
255926.096422
255931.015553
255907.032791
255899.482548
255880.021344
255858.140338
255840.223122
255797.043241
255768.728728
255730.389862
255691.124719
255658.903073
255603.978863
255568.579406
255522.991088
255477.475929
255430.669589
255378.593433
255318.039082
255253.71275
255200.668212
255124.932129
255413.37108
66.7281849507
66.7281849507
66.7281849507
66.7281849507
66.7281849507
66.7281849507
66.7281849507
66.7281849507
66.7281849507
66.7281849507
66.7281849507
66.7281849507
66.7281849507
66.7281849507
66.7281849507
66.7281849507
66.7281849507
66.7281849507
66.7281849526
66.7281850669
66.7281919587
66.7285894371
66.7519018786
67.1099930829
358.391924825
2520.82950535
11864.7270523
37693.4238068
87269.3507998
154336.553953
211684.370791
240485.861807
249096.40705
250959.998038
251384.253578
251537.182382
251638.165352
251692.776801
251751.155086
251786.917805
251809.35972
251826.411587
251816.877708
251821.373107
251813.568494
251803.500682
251768.309982
251747.188061
251716.647138
251675.944273
251637.04264
251574.612216
251533.639569
251482.684096
251435.992335
251361.954915
251310.560694
251249.923346
251190.326624
251137.479877
251060.659726
251005.068925
250939.008951
250872.510657
250805.411075
250736.461879
250665.558341
250594.337852
250524.638339
250752.299966
66.7281849506
66.7281849506
66.7281849506
66.7281849506
66.7281849506
66.7281849506
66.7281849506
66.7281849506
66.7281849506
66.7281849506
66.7281849506
66.7281849506
66.7281849506
66.7281849506
66.7281849506
66.7281849506
66.7281849506
66.7281849507
66.7281849549
66.7281852058
66.7282000456
66.7290349163
66.7761416365
67.3788161214
616.782224799
3233.52437648
15496.3721786
45043.1030041
98684.1979187
165361.096608
216811.58938
239854.585565
246088.962482
247338.828802
247590.528035
247660.942524
247676.112274
247690.710756
247687.211777
247677.553802
247640.029536
247613.46682
247578.077707
247539.786394
247479.233095
247432.715599
247378.351339
247321.172963
247241.187858
247178.293486
247104.044837
247036.126161
246944.435428
246874.650186
246796.317028
246721.42125
246624.589071
246548.008673
246467.499833
246389.564898
246317.706614
246218.801793
246140.658319
246057.596097
245975.758207
245894.528375
245812.229023
245728.496226
245644.596787
245836.149646
66.7281849505
66.7281849505
66.7281849505
66.7281849505
66.7281849505
66.7281849505
66.7281849505
66.7281849505
66.7281849505
66.7281849505
66.7281849505
66.7281849505
66.7281849505
66.7281849505
66.7281849505
66.7281849505
66.7281849505
66.7281849507
66.7281849594
66.7281854895
66.7282174674
66.7301066631
66.8096968796
81.3256930026
860.366944018
4221.45825969
19738.2475942
53659.5027428
111021.825638
175920.705715
220624.675744
238374.307405
242685.260545
243462.729565
243553.521517
243549.088552
243510.501269
243460.276962
243382.09172
243318.133227
243249.077716
243156.263058
243078.444964
242994.488861
242911.949294
242808.936923
242723.235933
242633.564169
242521.983144
242427.664215
242325.094279
242227.840113
242110.264249
242017.117956
241912.21634
241811.7733
241688.600697
241593.877858
241498.807305
241402.708607
241301.354107
241202.986428
241084.984127
240994.565631
240901.681173
240807.613386
240710.203109
240610.238641
240511.73102
240669.01139
66.7281849504
66.7281849504
66.7281849504
66.7281849504
66.7281849504
66.7281849504
66.7281849504
66.7281849504
66.7281849504
66.7281849504
66.7281849504
66.7281849504
66.7281849504
66.7281849504
66.7281849504
66.7281849504
66.7281849504
66.7281849509
66.728184976
66.7281864843
66.7282737063
66.733336927
66.8586191764
122.289009201
1147.06227486
5675.20494812
25029.319584
63711.9876052
124098.529993
185601.660584
223065.226327
236122.248219
238946.349846
239342.776167
239328.390331
239237.357618
239109.301551
238995.587727
238876.927061
238739.947278
238618.569904
238497.062808
238352.549857
238229.026804
238097.385545
237972.559311
237827.942468
237702.321493
237579.228701
237432.51834
237307.988044
237176.901448
237054.451851
236914.68544
236794.087578
236663.840703
236540.371586
236399.145481
236288.678883
236175.068745
236059.537012
235944.942489
235809.180002
235700.269324
235590.185309
235481.088593
235370.742109
235258.591496
235147.322203
235268.942932
66.7281849503
66.7281849503
66.7281849503
66.7281849503
66.7281849503
66.7281849503
66.7281849503
66.7281849503
66.7281849504
66.7281849504
66.7281849504
66.7281849504
66.7281849504
66.7281849504
66.7281849504
66.7281849504
66.7281849504
66.7281849515
66.728185017
66.7281889282
66.7284140145
66.7415943443
66.9813586311
223.363935489
1970.88128473
8286.25737912
31618.4349993
75389.4719238
137599.395269
194045.571926
224078.614811
233165.888344
234866.984847
235008.235237
234884.004034
234699.447955
234523.557597
234322.450654
234147.616892
233974.910866
233779.695114
233604.074169
233431.965762
233240.632706
233071.456735
232902.966847
232718.618186
232557.091327
232397.460987
232218.946804
232063.197646
231902.101537
231752.039344
231585.049446
231442.503194
231292.687553
231148.202978
230985.878683
230852.193723
230716.456554
230590.585908
230442.372859
230318.385898
230186.893012
230056.522753
229928.272054
229802.986382
229680.138614
229558.802505
229646.954551
66.7281849503
66.7281849503
66.7281849503
66.7281849503
66.7281849503
66.7281849503
66.7281849503
66.7281849503
66.7281849503
66.7281849503
66.7281849503
66.7281849503
66.7281849503
66.7281849503
66.7281849503
66.7281849503
66.7281849504
66.7281849535
66.728185141
66.7281962233
66.7288210862
66.764201906
67.2551696484
475.378840079
2837.4037464
13120.0268796
39793.8843829
88589.3016567
151087.86753
200890.670696
223684.327943
229605.494026
230500.356169
230435.309929
230200.2671
229966.697211
229708.950691
229475.966141
229221.150063
228988.473328
228756.9413
228509.19862
228287.189246
228066.214375
227834.296442
227630.466003
227404.585695
227204.72319
227008.974254
226799.125565
226612.091606
226420.506458
226240.736488
226049.72037
225882.677292
225717.767632
225533.672061
225373.358505
225211.550098
225054.857843
224910.650209
224747.574792
224608.305242
224462.317245
224316.683492
224171.639823
224029.545505
223890.782452
223754.885798
223805.906251
66.7281849502
66.7281849502
66.7281849502
66.7281849502
66.7281849502
66.7281849502
66.7281849502
66.7281849502
66.7281849502
66.7281849502
66.7281849502
66.7281849502
66.7281849502
66.7281849502
66.7281849502
66.7281849502
66.7281849504
66.728184959
66.7281854517
66.7282139328
66.7298449018
66.8075374959
76.8642658366
818.311550999
3961.96514045
18284.2015108
49850.4757254
103290.732036
163971.865515
205786.990379
222010.402322
225542.191141
225874.272037
225633.75311
225334.288571
225006.550809
224704.178234
224386.672166
224098.619387
223791.817394
223512.394651
223217.574842
222946.505119
222682.473134
222407.507435
222158.118183
221888.57962
221656.776129
221430.926126
221189.350326
220972.18512
220760.103674
220531.983024
220332.259443
220132.953511
219943.446822
219738.332782
219556.132955
219372.256219
219201.575709
219016.707388
218858.820969
218696.257007
218534.372944
218372.245625
218212.696144
218062.601654
217892.680443
217749.542392
217762.546996
66.7281849502
66.7281849502
66.7281849502
66.7281849502
66.7281849502
66.7281849502
66.7281849502
66.7281849502
66.7281849502
66.7281849502
66.7281849502
66.7281849502
66.7281849502
66.7281849502
66.7281849502
66.7281849502
66.7281849507
66.7281849819
66.7281868222
66.7282913179
66.7342249496
66.8745259212
129.086413565
1183.56622844
5733.64307993
24830.485816
62130.7810802
119064.655391
175538.762233
208594.394097
219236.484407
221067.182225
221014.396029
220646.830345
220261.340435
219859.258114
219490.792789
219111.042781
218764.575967
218402.326398
218069.78899
217719.147899
217408.277153
217103.266389
216788.331937
216505.09608
216206.528995
215936.359772
215675.036656
215399.405875
215152.767205
214911.668037
214657.319323
214431.980107
214214.192624
213982.02898
213776.28151
213567.074714
213367.873822
213152.451801
212967.851266
212784.329677
212605.477365
212430.00697
212261.277349
212069.503935
211901.79822
211730.870735
211565.529971
211542.120603
66.7281849501
66.7281849501
66.7281849501
66.7281849501
66.7281849501
66.7281849501
66.7281849501
66.7281849501
66.7281849501
66.7281849501
66.7281849501
66.7281849501
66.7281849501
66.7281849501
66.7281849501
66.7281849502
66.728184952
66.728185059
66.7281913406
66.7285430833
66.7483317196
67.0737167317
292.072153938
2266.83700514
9327.54229235
33264.2396506
76611.7496836
135114.87523
184961.212031
209205.534307
215555.183821
216288.724593
215960.551471
215504.659154
215018.998095
214566.533776
214107.488054
213662.763623
213254.45051
212840.288179
212453.45842
212080.256677
211700.924648
211354.915262
211001.005728
210681.682027
210348.237855
210041.37583
209744.236878
209440.166587
209171.864587
208883.93367
208625.31712
208365.225153
208093.174564
207866.004897
207640.171821
207419.391352
207180.648009
206967.541943
206753.532439
206547.393216
206356.808843
206151.760422
205971.92132
205784.659189
205595.002696
205407.827396
205226.951033
205165.493323
66.7281849501
66.7281849501
66.7281849501
66.7281849501
66.7281849501
66.7281849501
66.7281849501
66.7281849501
66.7281849501
66.7281849501
66.7281849501
66.7281849501
66.7281849501
66.7281849501
66.7281849501
66.7281849502
66.7281849569
66.7281853404
66.7282072061
66.7293948616
66.7927538028
67.5671512321
700.177782513
3436.29162382
15679.0071943
44113.367497
93129.7601958
150654.976553
191654.705786
207876.599012
211171.992115
211195.752973
210712.76311
210152.073355
209598.984921
209080.06587
208556.803842
208069.585905
207584.301876
207115.288781
206683.56732
206245.253017
205839.171854
205426.263069
205053.615003
204697.1609
204329.299306
203996.823405
203649.188313
203333.644726
203029.702455
202716.120169
202431.63559
202153.109819
201863.593208
201604.73413
201356.55964
201096.772171
200864.453654
200627.708481
200400.167035
200157.974613
199950.110524
199745.085619
199545.148203
199344.481127
199142.591018
198949.421793
198739.666147
198647.582705
66.72818495
66.72818495
66.72818495
66.72818495
66.7281849501
66.7281849501
66.7281849501
66.7281849501
66.7281849501
66.7281849501
66.7281849501
66.7281849501
66.7281849501
66.7281849501
66.7281849501
66.7281849506
66.7281849795
66.7281866758
66.7282823512
66.7336350002
66.8691652155
119.364326779
1109.38004453
5317.45048134
23027.3305435
57852.4411674
111153.809446
164309.905048
195343.146137
204993.531949
206280.529552
205894.22607
205259.393606
204619.332757
203996.251635
203414.628552
202835.918851
202295.754787
201761.725103
201244.323533
200762.866873
200278.76621
199833.109046
199382.758118
198974.083542
198557.696988
198176.235188
197781.282544
197427.155666
197085.645311
196734.158907
196414.990559
196105.859604
195784.632674
195493.315903
195211.00557
194919.323121
194663.842024
194416.292045
194149.632765
193905.447035
193659.805061
193423.19341
193203.284524
192970.347959
192765.678998
192557.683169
192351.32882
192146.7934
192011.808826
66.72818495
66.72818495
66.72818495
66.72818495
66.72818495
66.72818495
66.72818495
66.72818495
66.72818495
66.72818495
66.72818495
66.72818495
66.72818495
66.72818495
66.7281849501
66.7281849523
66.7281850794
66.7281924094
66.7285977494
66.7510586987
67.1119665369
309.57258977
2309.70203153
9147.45388547
32827.6787565
74480.2958388
129486.147242
174959.744767
196023.811194
200902.829667
201050.774434
200398.24604
199666.517428
198949.052703
198253.346948
197607.631454
196974.591225
196363.430266
195794.309465
195224.811363
194699.994168
194174.446564
193689.427137
193203.570128
192757.647655
192307.756208
191896.759169
191476.576653
191094.242475
190700.863558
190341.255367
189996.610087
189642.572742
189323.345589
188987.005164
188688.722233
188399.538785
188126.230438
187838.248748
187577.876158
187312.398746
187056.78808
186787.77748
186553.018446
186322.041691
186099.162615
185878.667322
185655.794306
185437.783198
185244.09777
66.72818495
66.72818495
66.72818495
66.72818495
66.72818495
66.72818495
66.72818495
66.72818495
66.72818495
66.72818495
66.72818495
66.72818495
66.72818495
66.72818495
66.7281849502
66.7281849603
66.7281855287
66.7282171393
66.729945219
66.8130638355
76.2136667589
798.746849087
3801.73734879
16855.0275343
45807.5698422
93531.9951988
146540.426534
181719.365044
194161.477666
196013.61314
195525.194096
194722.910143
193910.42526
193126.895749
192371.443944
191665.559613
190973.670264
190312.232218
189691.807948
189083.44751
188497.43136
187953.863945
187407.945374
186907.862464
186405.632259
185945.631081
185482.144503
185060.681997
184629.352374
184231.621999
183820.994492
183457.186213
183108.536203
182745.991895
182415.383177
182095.976854
181765.851845
181472.037727
181181.821743
180903.909365
180607.559508
180339.492714
180073.024448
179815.477045
179576.115571
179322.202879
179096.084709
178865.954244
178639.167519
178434.705628
66.7281849499
66.7281849499
66.72818495
66.72818495
66.72818495
66.72818495
66.72818495
66.72818495
66.72818495
66.72818495
66.72818495
66.72818495
66.72818495
66.72818495
66.7281849511
66.7281850129
66.7281885053
66.7283782876
66.738680513
66.9427319509
170.646960944
1451.75087942
6428.5115023
26171.5307511
62391.0899874
113869.456176
160470.08377
184426.442514
190432.308406
190615.232563
189800.086036
188890.834468
188006.997794
187159.505515
186352.953451
185577.247339
184851.731569
184140.133465
183460.858679
182826.656776
182203.093781
181604.944844
181049.120152
180489.743873
179978.65738
179467.125411
179000.317073
178530.927131
178102.477654
177661.329747
177253.618289
176859.207705
176464.067868
176105.034699
175758.142504
175400.350054
175073.851145
174756.783938
174430.222345
174137.679468
173848.999588
173571.753104
173279.512603
173012.903884
172748.533793
172495.235317
172252.829019
172016.704217
171790.208478
171544.041284
66.7281849499
66.7281849499
66.7281849499
66.7281849499
66.7281849499
66.7281849499
66.7281849499
66.7281849499
66.7281849499
66.7281849499
66.7281849499
66.7281849499
66.7281849499
66.72818495
66.7281849563
66.7281853074
66.7282047996
66.7292405716
66.7834884425
67.4817625866
597.793103358
3096.61005065
13159.2270262
38923.3911164
82256.7118539
133438.300029
169817.258947
183501.854528
185545.108383
184896.678949
183908.899625
182922.999897
181976.390071
181075.105131
180215.232738
179395.644821
178607.669289
177870.657822
177149.848451
176458.632063
175817.045078
175187.981301
174582.135656
174019.801099
173454.745086
172937.744495
172420.920458
171951.081155
171474.250616
171034.247809
170581.52991
170171.873572
169782.183872
169386.338334
169023.959699
168671.540477
168305.401688
167972.109238
167646.085745
167338.843528
167018.303878
166730.923229
166443.755697
166169.593493
165877.514195
165617.902096
165359.3921
165108.390799
164863.844139
164598.729065
66.7281849499
66.7281849499
66.7281849499
66.7281849499
66.7281849499
66.7281849499
66.7281849499
66.7281849499
66.7281849499
66.7281849499
66.7281849499
66.7281849499
66.7281849499
66.7281849507
66.7281849952
66.728187517
66.7283248943
66.7357188396
66.9040478581
135.397590261
1189.87136907
5510.14838619
22911.592652
55972.5821195
104249.552045
149634.657225
173863.251799
179975.542882
179967.25111
178936.393224
177857.848207
176814.890031
175815.087155
174860.792884
173969.086984
173104.575296
172280.892606
171492.935087
170736.297272
170031.289184
169338.092116
168677.696766
168067.466767
167457.518103
166894.925908
166329.059605
165811.329095
165291.160051
164818.987212
164338.192397
163891.760382
163434.079133
163029.156444
162642.394644
162244.408447
161877.834786
161520.714647
161150.002676
160815.776447
160489.25072
160180.925346
159856.03598
159562.690328
159270.376317
158988.030306
158714.152615
158454.344499
158176.423266
157927.105062
157627.98294