/*--------------------------------*- C++ -*----------------------------------*\
| =========                 |                                                 |
| \\      /  F ield         | foam-extend: Open Source CFD                    |
|  \\    /   O peration     | Version:     4.1                                |
|   \\  /    A nd           | Web:         http://www.foam-extend.org         |
|    \\/     M anipulation  |                                                 |
\*---------------------------------------------------------------------------*/
FoamFile
{
    version     2.0;
    format      ascii;
    class       volScalarField;
    location    "0.0004";
    object      rho;
}
// * * * * * * * * * * * * * * * * * * * * * * * * * * * * * * * * * * * * * //

dimensions      [1 -3 0 0 0 0 0];

internalField   nonuniform List<scalar> 
8400
(
0.00101999409805
0.00101999409805
0.00101999409805
0.00101999409805
0.00101999409805
0.00101999409805
0.00101999409805
0.00101999409805
0.00101999409805
0.00101999409806
0.00101999409806
0.00101999409806
0.00101999409806
0.00101999409806
0.00101999409806
0.00101999409806
0.00101999409806
0.00101999409806
0.00101999409806
0.00101999409806
0.00101999409806
0.00101999409807
0.0010199940985
0.00101999412428
0.00101999561989
0.00102008425096
0.00102200119899
0.00104550574836
0.00120401872395
0.00176972803292
0.00314325109276
0.00567956304353
0.00922288682037
0.0125995935034
0.0146199800434
0.0153621875981
0.0155371340261
0.0155534808987
0.0155345070872
0.0155093124378
0.0154839788265
0.0154589290016
0.0154340418922
0.015409457167
0.0153851202191
0.0153609454281
0.0153368669319
0.0153130600485
0.0152893654824
0.0152649720828
0.0152396374859
0.0152137050431
0.0151874181625
0.0151608824368
0.0151340634536
0.0151072168128
0.0150805518915
0.015053887665
0.0150275635271
0.0150021922692
0.0149780665994
0.0149553912593
0.0149344322507
0.0149158844181
0.0149001487508
0.0148867674953
0.0148757109797
0.0148674589234
0.0148624280164
0.0149039967893
0.00101999409788
0.00101999409788
0.00101999409788
0.00101999409788
0.00101999409788
0.00101999409788
0.00101999409788
0.00101999409788
0.00101999409788
0.00101999409788
0.00101999409788
0.00101999409788
0.00101999409788
0.00101999409788
0.00101999409788
0.00101999409788
0.00101999409788
0.00101999409788
0.00101999409788
0.00101999409788
0.00101999409789
0.00101999409793
0.00101999410038
0.00101999424845
0.00102000271454
0.00102049581255
0.00102711638667
0.00108681486165
0.00137836022517
0.00223375091632
0.00406166025928
0.00711418872043
0.0107954953735
0.0137054285923
0.0151225733438
0.0155674493409
0.0156787023934
0.0157092948897
0.0157223905451
0.0157312036233
0.0157379151395
0.015742803562
0.015745882017
0.0157472101166
0.015746855504
0.0157448388417
0.0157411746831
0.0157358573916
0.0157287578467
0.0157197356678
0.0157091132317
0.0156971409142
0.0156835215671
0.015668269114
0.0156516006296
0.0156337018513
0.0156149738386
0.0155958465881
0.0155766510476
0.0155576044887
0.0155388719512
0.0155207334958
0.0155041003278
0.0154895338149
0.0154764126109
0.0154647818143
0.0154554697138
0.0154489441224
0.0154454406598
0.0154777530194
0.00101999409781
0.00101999409781
0.00101999409781
0.00101999409781
0.00101999409781
0.00101999409781
0.00101999409781
0.00101999409781
0.00101999409781
0.00101999409781
0.00101999409781
0.00101999409781
0.00101999409781
0.00101999409781
0.00101999409782
0.00101999409782
0.00101999409782
0.00101999409782
0.00101999409782
0.00101999409782
0.00101999409782
0.00101999409803
0.00101999411124
0.00101999489669
0.0010200417772
0.00102138771385
0.00103825375109
0.00116211870545
0.00164193100468
0.00286585313493
0.00521898339281
0.00868665185495
0.0122207734567
0.0144950318472
0.0153927680743
0.0156393367006
0.0157044233099
0.0157295401612
0.0157454655554
0.0157578521608
0.0157676828459
0.0157751499786
0.0157803213337
0.015783217752
0.0157838614391
0.0157823486355
0.0157787806327
0.0157731532832
0.0157654183518
0.0157555974997
0.0157438609502
0.0157304980813
0.0157160235247
0.0157005271736
0.0156834196433
0.015664791652
0.0156453713375
0.0156257067319
0.015606101868
0.0155867460676
0.0155679787475
0.0155501398124
0.0155333864757
0.015518047413
0.0155049323237
0.0154943077753
0.0154856885855
0.015479112552
0.0154751065941
0.0155005605582
0.00101999409778
0.00101999409778
0.00101999409778
0.00101999409778
0.00101999409778
0.00101999409778
0.00101999409778
0.00101999409778
0.00101999409778
0.00101999409778
0.00101999409778
0.00101999409778
0.00101999409778
0.00101999409778
0.00101999409778
0.00101999409778
0.00101999409778
0.00101999409778
0.00101999409778
0.00101999409778
0.0010199940978
0.00101999409876
0.00101999415815
0.00101999763522
0.00102020523967
0.00102376894824
0.00106106402012
0.00127669343774
0.00196839472821
0.00354191275317
0.00633815585027
0.0100032284743
0.0132076616292
0.0149332991213
0.0155118303418
0.0156592991102
0.0157014699517
0.0157208657028
0.0157342316983
0.0157445501325
0.0157522672164
0.0157575073359
0.015760364409
0.0157608618878
0.015759003001
0.0157548830393
0.015748649827
0.0157403486576
0.0157299197353
0.0157174041154
0.015703374623
0.015688282065
0.0156717732639
0.015653724989
0.0156344026959
0.0156140879149
0.0155932866502
0.0155725009431
0.0155519621892
0.0155317597517
0.0155124467766
0.015494472105
0.0154776647529
0.0154623094609
0.0154488638798
0.0154374330328
0.0154281808131
0.0154213515349
0.0154172093061
0.0154391477557
0.00101999409776
0.00101999409776
0.00101999409776
0.00101999409776
0.00101999409776
0.00101999409776
0.00101999409776
0.00101999409776
0.00101999409776
0.00101999409776
0.00101999409776
0.00101999409776
0.00101999409776
0.00101999409776
0.00101999409776
0.00101999409776
0.00101999409776
0.00101999409776
0.00101999409776
0.00101999409776
0.00101999409781
0.00101999410072
0.00101999427649
0.00102000434718
0.00102058968653
0.00102816880205
0.00109440370081
0.00140752506797
0.00230968444268
0.00421308022534
0.00734556667497
0.0110407341721
0.0138655198836
0.0151765319139
0.0155657125962
0.0156613275833
0.0156903410965
0.0157044148863
0.0157140092213
0.0157209863709
0.0157254119526
0.0157273528698
0.0157269294763
0.0157242785559
0.0157193837473
0.0157121803714
0.0157031143175
0.0156924591917
0.0156796848584
0.0156646716301
0.0156478829853
0.0156297664245
0.0156106567766
0.0155907078712
0.0155699287735
0.0155482138487
0.0155257969818
0.0155037459154
0.0154827370721
0.0154623087287
0.0154423157771
0.0154231788865
0.0154053872936
0.015389421155
0.0153755519347
0.0153638649931
0.0153544002823
0.0153472833034
0.0153427479521
0.0153623295331
0.00101999409774
0.00101999409774
0.00101999409774
0.00101999409774
0.00101999409774
0.00101999409774
0.00101999409774
0.00101999409774
0.00101999409774
0.00101999409774
0.00101999409774
0.00101999409774
0.00101999409774
0.00101999409774
0.00101999409774
0.00101999409774
0.00101999409774
0.00101999409774
0.00101999409774
0.00101999409775
0.00101999409785
0.00101999410458
0.00101999452095
0.00102001969531
0.00102106277757
0.00103393956661
0.00113426267729
0.00155031003759
0.00265704422999
0.00485599398392
0.00823035532639
0.0118504243845
0.0143111546
0.0153199959573
0.0155925922638
0.0156570361771
0.0156766643805
0.0156861353896
0.015691897844
0.0156950450168
0.0156957371916
0.0156940635705
0.0156901497464
0.0156840682635
0.0156758498406
0.0156655534127
0.0156532801284
0.0156391310006
0.01562317985
0.0156055058343
0.0155862357954
0.0155656743917
0.0155442702615
0.0155225684336
0.0155005476731
0.0154775625922
0.0154537978777
0.0154301630856
0.0154072924215
0.0153854350319
0.0153646046625
0.0153447931851
0.0153262886699
0.0153100001314
0.0152963769461
0.0152848165069
0.0152751161509
0.0152676070393
0.0152626345823
0.0152805849436
0.00101999409773
0.00101999409773
0.00101999409773
0.00101999409773
0.00101999409773
0.00101999409773
0.00101999409773
0.00101999409773
0.00101999409773
0.00101999409773
0.00101999409773
0.00101999409773
0.00101999409773
0.00101999409773
0.00101999409773
0.00101999409773
0.00101999409773
0.00101999409773
0.00101999409773
0.00101999409774
0.00101999409803
0.00101999411599
0.00101999517729
0.00102005847543
0.00102164522811
0.00104146517572
0.00118189226397
0.0017053365009
0.00301087751999
0.0054745112589
0.00901555766591
0.0124960441021
0.0146251660026
0.0154093648989
0.0156052523736
0.0156489160981
0.0156608488116
0.0156653747156
0.0156668060896
0.0156658233921
0.0156625656753
0.0156571078036
0.015649493624
0.015639767695
0.0156280160883
0.0156143009532
0.0155987300575
0.0155815115468
0.0155627602705
0.0155424570651
0.0155209404443
0.0154984802293
0.0154749211407
0.0154506117818
0.0154259511439
0.0154009738266
0.0153758618728
0.015350926543
0.0153266503116
0.0153038160244
0.0152825552397
0.0152621855404
0.0152428362355
0.0152253677339
0.0152103527039
0.0151978749916
0.0151877429286
0.0151798430864
0.0151743000494
0.0151905767352
0.00101999409773
0.00101999409773
0.00101999409773
0.00101999409773
0.00101999409773
0.00101999409773
0.00101999409773
0.00101999409773
0.00101999409773
0.00101999409773
0.00101999409773
0.00101999409773
0.00101999409773
0.00101999409773
0.00101999409773
0.00101999409773
0.00101999409773
0.00101999409773
0.00101999409773
0.00101999409774
0.00101999409837
0.001019994137
0.00101999642459
0.00102013590776
0.00102284789301
0.00105340890082
0.00124289919067
0.0018791040701
0.00337318635509
0.00607626502673
0.00972326376156
0.0130229951374
0.0148529506154
0.0154657262784
0.0156079616076
0.0156366740858
0.0156419437893
0.0156413173583
0.015637994156
0.0156325101217
0.0156249770177
0.0156154309064
0.015603896633
0.0155904114024
0.015575001463
0.015557748045
0.015538849045
0.0155187842674
0.0154976805564
0.0154749624479
0.0154505776936
0.0154250216393
0.0153986757387
0.01537187213
0.0153448358989
0.0153180248305
0.0152917224726
0.0152656833575
0.0152401361002
0.0152156002112
0.0151923571157
0.0151706815717
0.0151508063322
0.0151327771155
0.0151166428979
0.0151032120333
0.0150930219322
0.0150851932087
0.0150794192957
0.015094889777
0.00101999409772
0.00101999409772
0.00101999409772
0.00101999409772
0.00101999409772
0.00101999409772
0.00101999409772
0.00101999409772
0.00101999409772
0.00101999409772
0.00101999409772
0.00101999409772
0.00101999409772
0.00101999409772
0.00101999409772
0.00101999409772
0.00101999409772
0.00101999409772
0.00101999409772
0.00101999409775
0.00101999409912
0.00101999418343
0.00101999910294
0.00102029257625
0.00102488312332
0.00107032531004
0.00131553286849
0.00207335208468
0.0037562354838
0.00667636119021
0.0103772154647
0.0134637667455
0.0150218494664
0.0154990606909
0.0156012098055
0.0156177304605
0.0156168180191
0.015611304104
0.0156034274245
0.0155935276721
0.0155816893858
0.0155679666204
0.0155523873438
0.0155349599663
0.0155159839928
0.0154956141228
0.0154735096069
0.0154498480804
0.0154250127515
0.0153989819198
0.0153717576485
0.0153435147553
0.0153149253998
0.0152863807947
0.0152574806469
0.0152283775279
0.0151996124823
0.015171505941
0.0151443875993
0.0151187448981
0.0150947586419
0.0150721076164
0.0150510514677
0.0150320779547
0.0150153077132
0.0150009216964
0.0149891884623
0.0149802966974
0.0149743064467
0.0149893208837
0.00101999409772
0.00101999409772
0.00101999409772
0.00101999409772
0.00101999409772
0.00101999409772
0.00101999409772
0.00101999409772
0.00101999409772
0.00101999409772
0.00101999409772
0.00101999409772
0.00101999409772
0.00101999409772
0.00101999409772
0.00101999409772
0.00101999409772
0.00101999409772
0.00101999409772
0.00101999409776
0.00101999410047
0.00101999426348
0.00102000360138
0.00102054581561
0.00102773667672
0.00109144089634
0.00139699339542
0.00228395963835
0.00416682386134
0.00728574794374
0.0109927859641
0.0138412849113
0.0151510349811
0.0155177778632
0.0155882835286
0.0155942957111
0.0155870434932
0.0155760057375
0.0155628366398
0.0155478457959
0.015531172231
0.0155131545594
0.0154938137897
0.0154726030328
0.0154494906552
0.015424840774
0.015398859147
0.0153717570751
0.0153436062531
0.0153146612295
0.0152850171853
0.0152543607814
0.0152230278183
0.0151915686999
0.0151601511302
0.0151292781783
0.0150992096286
0.0150696106606
0.0150407291462
0.0150130728943
0.0149869728991
0.0149628990003
0.0149410119716
0.0149211360471
0.014903741389
0.0148892957827
0.0148772157296
0.0148674875874
0.0148607111105
0.0148745167799
0.00101999409771
0.00101999409771
0.00101999409771
0.00101999409771
0.00101999409771
0.00101999409771
0.00101999409771
0.00101999409771
0.00101999409771
0.00101999409771
0.00101999409771
0.00101999409771
0.00101999409771
0.00101999409771
0.00101999409771
0.00101999409771
0.00101999409771
0.00101999409771
0.00101999409772
0.0010199940978
0.00101999410255
0.00101999438294
0.00102001008861
0.00102088658883
0.00103156679207
0.00111780426234
0.00149289954118
0.00252115152988
0.00461163716269
0.00790897685319
0.011576078718
0.0141664000654
0.0152496040215
0.0155250383475
0.0155690801055
0.0155651524335
0.0155513873084
0.0155346227884
0.0155162349231
0.0154964547373
0.0154749048046
0.0154516732757
0.0154270472835
0.0154010147705
0.0153736076524
0.0153449094216
0.0153153446516
0.0152851263642
0.0152538075514
0.0152214026263
0.0151882844331
0.0151546627983
0.0151210411229
0.0150876518521
0.0150541683734
0.0150208454884
0.0149882787095
0.014956695438
0.0149265206886
0.0148979521841
0.0148706799791
0.0148450718655
0.0148217754079
0.0148009340194
0.0147825844988
0.0147667898753
0.0147536389755
0.014743281576
0.0147358822555
0.0147482601199
0.00101999409771
0.00101999409771
0.00101999409771
0.00101999409771
0.00101999409771
0.00101999409771
0.00101999409771
0.00101999409771
0.00101999409771
0.00101999409771
0.00101999409771
0.00101999409771
0.00101999409771
0.00101999409771
0.00101999409771
0.00101999409771
0.00101999409771
0.00101999409771
0.00101999409771
0.00101999409788
0.00101999410803
0.00101999472135
0.00102003124615
0.00102127071344
0.00103657852154
0.00115131102094
0.0016076622477
0.00279173380433
0.00509830457857
0.00855217001002
0.0121306875967
0.0144443606253
0.0153218123914
0.0155223474634
0.0155443337353
0.0155307121554
0.0155101211395
0.0154875045945
0.0154631704199
0.0154371789625
0.0154098413862
0.0153812785824
0.0153515617639
0.0153209844671
0.0152895839199
0.0152568869276
0.0152230268231
0.0151884137236
0.0151531406905
0.0151175864222
0.0150819121645
0.0150457969832
0.0150093945245
0.0149730032611
0.0149367413072
0.0149013505582
0.0148673681241
0.0148343624897
0.0148022870757
0.0147715690453
0.0147425241986
0.0147158271246
0.0146918212643
0.0146701288734
0.0146508565171
0.0146343161221
0.0146204727595
0.0146093736608
0.0146011839627
0.0146120509627
0.00101999409771
0.00101999409771
0.00101999409771
0.00101999409771
0.00101999409771
0.00101999409771
0.00101999409771
0.00101999409771
0.00101999409771
0.00101999409771
0.00101999409771
0.00101999409771
0.00101999409771
0.00101999409771
0.00101999409771
0.00101999409771
0.00101999409771
0.00101999409771
0.00101999409772
0.00101999409808
0.00101999412011
0.0010199954047
0.00102007103204
0.0010218573215
0.00104383431562
0.00119547967809
0.00174710177282
0.00310404385601
0.00563477928547
0.00921534381291
0.0126546826384
0.0146805711062
0.0153726744004
0.0155100720858
0.0155127307115
0.015489933449
0.0154620268684
0.0154323509945
0.0154015064711
0.0153694991111
0.0153363610882
0.0153024796678
0.0152680019587
0.0152324794214
0.015195877481
0.0151584682142
0.0151206670518
0.0150826070337
0.0150438409315
0.0150044589471
0.0149648827244
0.0149256207392
0.0148868425588
0.0148480945269
0.0148095459651
0.0147717488424
0.0147353071581
0.0147004630809
0.0146668242573
0.0146346306178
0.0146043790288
0.0145762503063
0.0145504770745
0.0145273112044
0.0145072637805
0.0144904075449
0.0144760987945
0.0144642942017
0.0144553190353
0.0144644988965
0.00101999409771
0.00101999409771
0.00101999409771
0.00101999409771
0.00101999409771
0.00101999409771
0.00101999409771
0.00101999409771
0.00101999409771
0.00101999409771
0.00101999409771
0.00101999409771
0.00101999409771
0.00101999409771
0.00101999409771
0.00101999409771
0.00101999409771
0.00101999409771
0.00101999409772
0.00101999409848
0.00101999414443
0.00101999683495
0.00102015812156
0.00102318944176
0.00105632933243
0.00125768477389
0.00192098128021
0.00346497568951
0.00622579747348
0.00989690094936
0.0131442173162
0.0148739474209
0.0154019221222
0.015487971426
0.0154740007476
0.0154415958826
0.0154057468739
0.0153688129611
0.0153313128856
0.0152933049874
0.0152543808719
0.0152145872504
0.0151742328269
0.0151335927943
0.0150926898576
0.0150510808749
0.0150088308572
0.014966252157
0.0149236645926
0.0148811584859
0.0148383714102
0.0147955819441
0.0147532514414
0.0147117433933
0.0146712261958
0.0146313609886
0.0145924183912
0.0145550211064
0.014519718735
0.0144866256805
0.0144552514244
0.0144258432706
0.0143989885187
0.0143747278308
0.0143529749131
0.0143339114235
0.0143179620364
0.0143057223699
0.0142968323911
0.0143048118734
0.00101999409771
0.00101999409771
0.00101999409771
0.00101999409771
0.00101999409771
0.00101999409771
0.00101999409771
0.00101999409771
0.00101999409771
0.00101999409771
0.00101999409771
0.00101999409771
0.00101999409771
0.00101999409771
0.00101999409771
0.00101999409771
0.00101999409771
0.00101999409771
0.00101999409774
0.00101999409945
0.00101999420275
0.00102000015809
0.0010203487584
0.0010256224504
0.00107612564739
0.00134004164073
0.00213907011169
0.00388844363522
0.00687981587787
0.0105929620491
0.0135929253012
0.0150250833487
0.0154096642234
0.015453220302
0.0154247433732
0.0153834623702
0.0153401346555
0.0152964123366
0.0152520519151
0.0152070619561
0.0151616713611
0.0151161920124
0.0150707645735
0.0150249618634
0.0149787166127
0.0149324954184
0.0148864201929
0.0148400231852
0.0147932580481
0.014746469143
0.0147001549216
0.0146546327626
0.0146095706542
0.014565019674
0.0145216071339
0.0144795345677
0.0144385629101
0.0143990732226
0.0143615973247
0.0143265124925
0.0142938512008
0.0142631694418
0.0142347873133
0.0142092378517
0.0141865810786
0.0141668616431
0.014150186764
0.0141366770834
0.0141264058114
0.0141330371629
0.0010199940977
0.0010199940977
0.0010199940977
0.0010199940977
0.0010199940977
0.0010199940977
0.0010199940977
0.0010199940977
0.0010199940977
0.0010199940977
0.0010199940977
0.0010199940977
0.0010199940977
0.0010199940977
0.0010199940977
0.0010199940977
0.0010199940977
0.00101999409771
0.00101999409777
0.0010199941015
0.001019994322
0.00102000670482
0.00102070346941
0.0010295433952
0.00110387368651
0.00144312577948
0.00239986910466
0.0043878857843
0.0076029379335
0.0112968544596
0.0139963577372
0.0151380307903
0.0153999637575
0.0154079368828
0.0153658854629
0.0153156900802
0.0152645185188
0.0152130540536
0.0151613825172
0.0151099385945
0.0150588139136
0.0150075563524
0.0149561004034
0.0149049292512
0.014854105889
0.0148031465438
0.0147520378448
0.0147013506073
0.0146511456707
0.01460097035
0.0145509914878
0.0145019658897
0.0144541023776
0.0144069610291
0.0143606631889
0.0143159390806
0.0142730576069
0.0142318080831
0.0141924071731
0.0141551982093
0.0141205679538
0.014088718152
0.0140592899873
0.0140324965181
0.0140087817367
0.0139881652821
0.0139706322995
0.0139562405595
0.0139451023819
0.0139500496045
0.0010199940977
0.0010199940977
0.0010199940977
0.0010199940977
0.0010199940977
0.0010199940977
0.0010199940977
0.0010199940977
0.0010199940977
0.0010199940977
0.0010199940977
0.0010199940977
0.0010199940977
0.0010199940977
0.0010199940977
0.0010199940977
0.0010199940977
0.00101999409771
0.00101999409784
0.00101999410589
0.00101999459214
0.00102002337996
0.00102118492669
0.00103525275849
0.00114207911424
0.00157665548049
0.00272005440875
0.00497254924366
0.00839167920872
0.0119927274132
0.0143450097151
0.0152134889663
0.0153733613699
0.0153518668358
0.015297544864
0.015238363005
0.0151786364327
0.0151192880597
0.0150606268292
0.0150022902142
0.0149444337469
0.0148872463259
0.0148302416714
0.0147733934373
0.0147172018519
0.0146616585234
0.0146062422029
0.0145512679738
0.0144970832541
0.0144432144759
0.0143897765214
0.014337591029
0.0142868452196
0.0142369678883
0.014188005198
0.014140799778
0.014095809116
0.0140527528117
0.0140116599113
0.0139727531133
0.0139360950803
0.013902350575
0.0138719589002
0.0138444819226
0.0138198152464
0.0137981479779
0.0137795393483
0.0137641659975
0.0137521951764
0.0137555520591
0.0010199940977
0.0010199940977
0.0010199940977
0.0010199940977
0.0010199940977
0.0010199940977
0.0010199940977
0.0010199940977
0.0010199940977
0.0010199940977
0.0010199940977
0.0010199940977
0.0010199940977
0.0010199940977
0.0010199940977
0.0010199940977
0.0010199940977
0.00101999409771
0.00101999409809
0.00101999412076
0.00101999543
0.00102007128272
0.00102190437146
0.00104415067271
0.00119690857822
0.00175143346013
0.00311484751342
0.00565321312562
0.00923740603148
0.0126590684008
0.0146311260442
0.0152537157629
0.0153319775292
0.0152862459401
0.0152196264916
0.0151506369882
0.015082381016
0.0150148805019
0.0149484339029
0.0148832209054
0.0148187084386
0.0147550407436
0.0146923830958
0.0146302046382
0.014568475697
0.0145077111324
0.0144479586749
0.0143887155002
0.0143302818757
0.0142729990272
0.0142164120704
0.0141607435669
0.0141067712236
0.0140545413383
0.0140034695305
0.0139536898172
0.0139062017923
0.013861456722
0.0138189585769
0.0137785454347
0.0137404884454
0.0137054049808
0.0136737075965
0.0136449852554
0.0136192090825
0.0135965867187
0.0135771137053
0.0135608976997
0.0135480710322
0.0135496085624
0.0010199940977
0.0010199940977
0.0010199940977
0.0010199940977
0.0010199940977
0.0010199940977
0.0010199940977
0.0010199940977
0.0010199940977
0.0010199940977
0.0010199940977
0.0010199940977
0.0010199940977
0.0010199940977
0.0010199940977
0.0010199940977
0.0010199940977
0.00101999409772
0.00101999409871
0.00101999415781
0.00101999756295
0.00102019649266
0.00102374997111
0.00106097393588
0.0012805335179
0.00198439889461
0.00359832820549
0.00643576484023
0.0101238879091
0.0132732315818
0.0148489687071
0.0152602102574
0.0152745796961
0.0152080535709
0.0151297855327
0.0150514754278
0.0149743936936
0.014898805017
0.0148248949586
0.0147524169748
0.0146812674501
0.0146110978716
0.0145420683922
0.0144743924491
0.0144075538904
0.0143418175551
0.0142774624699
0.014213927854
0.0141515165362
0.0140905617867
0.0140305592331
0.0139716911878
0.0139147734099
0.0138599185038
0.0138064878595
0.013754568093
0.0137050857864
0.0136583653617
0.0136139852232
0.0135720147363
0.0135330935131
0.0134973127901
0.0134641851412
0.0134338648804
0.0134068110443
0.0133831240314
0.0133628389114
0.0133459212537
0.0133323155566
0.0133319260025
0.0010199940977
0.0010199940977
0.0010199940977
0.0010199940977
0.0010199940977
0.0010199940977
0.0010199940977
0.0010199940977
0.0010199940977
0.0010199940977
0.0010199940977
0.0010199940977
0.0010199940977
0.0010199940977
0.0010199940977
0.0010199940977
0.0010199940977
0.00101999409775
0.00101999410057
0.00101999426711
0.00102000363833
0.00102053253326
0.00102777363811
0.00109181071919
0.00140077750409
0.00229533510975
0.00419286813812
0.0073259575696
0.0110273355053
0.0138100902195
0.0149940314484
0.0152328269236
0.0151989557283
0.0151155457496
0.0150266052755
0.0149389682079
0.0148535080341
0.0147701939438
0.0146888331776
0.0146089790679
0.0145307772789
0.0144543811805
0.0143792707312
0.0143057026618
0.0142338287326
0.0141633569208
0.014094342083
0.0140265391297
0.0139602563235
0.0138957168568
0.0138323483227
0.0137703568776
0.0137105684922
0.0136531351034
0.0135975007298
0.0135439530162
0.0134929267032
0.01344405993
0.0133975749581
0.0133539858587
0.01331373293
0.0132768316021
0.0132426431245
0.0132112599343
0.0131831445483
0.0131583915669
0.0131370621
0.0131191504697
0.0131046249407
0.01310233852
0.0010199940977
0.0010199940977
0.0010199940977
0.0010199940977
0.0010199940977
0.0010199940977
0.0010199940977
0.0010199940977
0.0010199940977
0.0010199940977
0.0010199940977
0.0010199940977
0.0010199940977
0.0010199940977
0.0010199940977
0.0010199940977
0.0010199940977
0.00101999409783
0.00101999410522
0.00101999453788
0.00102001960687
0.00102115837498
0.00103479357285
0.00113851272431
0.00156456914982
0.00269193839773
0.00492244002769
0.00832327135317
0.0119184760038
0.0142527951006
0.01507291902
0.0151770525997
0.0151066675766
0.0150088344476
0.014909510861
0.0148125665757
0.0147184163952
0.0146269428859
0.0145379354847
0.0144512135183
0.0143666180296
0.0142840445731
0.0142031493166
0.0141241385
0.0140472259464
0.0139718147718
0.0138980791648
0.0138263089398
0.013756407443
0.013688394515
0.0136218885165
0.013557259417
0.0134950613696
0.013434877434
0.0133766744056
0.0133210242335
0.0132680359036
0.0132173494056
0.0131692684864
0.0131246001722
0.0130833951312
0.0130449755626
0.0130093009932
0.0129767899306
0.0129476093718
0.0129218410366
0.0128998576757
0.0128816811573
0.0128666197831
0.012862472046
0.0010199940977
0.0010199940977
0.0010199940977
0.0010199940977
0.0010199940977
0.0010199940977
0.0010199940977
0.0010199940977
0.0010199940977
0.0010199940977
0.0010199940977
0.0010199940977
0.0010199940977
0.0010199940977
0.0010199940977
0.0010199940977
0.00101999409771
0.00101999409818
0.00101999412593
0.00101999569838
0.00102008486689
0.00102214301409
0.00104663411544
0.00121059519852
0.00179237615874
0.00320461275646
0.00580040731739
0.0094038023584
0.0127516282135
0.0145861000629
0.0150923934297
0.015097174572
0.0149989408791
0.014887853091
0.0147781369753
0.0146717925243
0.0145689481531
0.0144694208647
0.014372926187
0.0142792015399
0.0141877718124
0.0140987522362
0.0140123442712
0.0139283169905
0.0138465681552
0.0137669353462
0.013689391745
0.0136136281182
0.0135399202918
0.0134685680754
0.0133989759647
0.0133315486157
0.0132667724938
0.0132041651372
0.0131441032346
0.0130868998458
0.0130319270743
0.0129793122467
0.012929955453
0.0128841025832
0.0128412018509
0.012801254851
0.0127646023616
0.0127312313974
0.0127014306349
0.0126752671262
0.0126522165701
0.0126323775449
0.0126161151753
0.0126101113356
0.0010199940977
0.0010199940977
0.0010199940977
0.0010199940977
0.0010199940977
0.0010199940977
0.0010199940977
0.0010199940977
0.0010199940977
0.0010199940977
0.0010199940977
0.0010199940977
0.0010199940977
0.0010199940977
0.0010199940977
0.0010199940977
0.00101999409773
0.00101999409935
0.00101999419424
0.00101999949463
0.00102029762517
0.00102512301823
0.00107208701931
0.00132897923359
0.00211527010129
0.00385784165029
0.0068308927213
0.0105252799958
0.0134771006236
0.0148014441361
0.0150586026895
0.0149943852682
0.0148749624813
0.0147515750923
0.0146317027737
0.0145160909207
0.0144046012955
0.0142969406974
0.014193062513
0.0140925381996
0.0139946813865
0.013899776433
0.0138079671254
0.0137188803389
0.0136323742105
0.0135483509331
0.0134667515845
0.0133872246908
0.0133100702693
0.0132356512874
0.0131636927546
0.0130941186393
0.0130266029441
0.0129613093212
0.0128990807464
0.0128400517845
0.0127835929135
0.0127299905871
0.0126796468177
0.012632079216
0.0125874604052
0.0125463202372
0.0125090567704
0.0124755423723
0.0124449697529
0.0124172914424
0.0123929353204
0.0123721045232
0.0123549410658
0.0123470473162
0.0010199940977
0.0010199940977
0.0010199940977
0.0010199940977
0.0010199940977
0.0010199940977
0.0010199940977
0.0010199940977
0.0010199940977
0.0010199940977
0.0010199940977
0.0010199940977
0.0010199940977
0.0010199940977
0.0010199940977
0.0010199940977
0.0010199940978
0.00101999410356
0.00101999443097
0.00102001215209
0.00102095228287
0.00103235010318
0.00112214046582
0.00150920466225
0.00256209664502
0.00468914886474
0.00800993090043
0.0116289156029
0.0140513211867
0.0149023680791
0.0149781638814
0.0148679794375
0.014732239578
0.0145980323002
0.0144686450058
0.0143440284698
0.0142241865794
0.0141087683035
0.0139977320032
0.0138906262492
0.0137868993021
0.0136865409731
0.013589366627
0.0134953489395
0.0134042196865
0.013315998715
0.0132306859939
0.0131479116277
0.0130677732307
0.0129900946009
0.0129151800223
0.0128432537816
0.0127736303921
0.0127066583241
0.0126428492025
0.0125818203523
0.0125239514038
0.0124694837698
0.0124177034884
0.0123686161294
0.0123231038379
0.0122814864619
0.0122432290562
0.0122082200994
0.0121765456866
0.0121480733593
0.0121228965449
0.0121015493502
0.0120841838456
0.0120745969129
0.0010199940977
0.0010199940977
0.0010199940977
0.0010199940977
0.0010199940977
0.0010199940977
0.0010199940977
0.0010199940977
0.0010199940977
0.0010199940977
0.0010199940977
0.0010199940977
0.0010199940977
0.0010199940977
0.0010199940977
0.0010199940977
0.00101999409815
0.0010199941239
0.00101999557161
0.00102007640892
0.00102206729632
0.00104557584124
0.0012040525881
0.00177282860711
0.00316232616802
0.00572765047533
0.00930745876947
0.0126445847071
0.0144531921306
0.014908694029
0.0148621793696
0.0147203240164
0.0145706458829
0.0144260514875
0.0142873657411
0.0141543072604
0.0140267273863
0.0139041360623
0.0137864044238
0.013673083372
0.0135636236773
0.0134579869474
0.013356000103
0.0132575304681
0.0131624000867
0.0130704046555
0.0129814054196
0.0128954076462
0.0128121171829
0.0127317943911
0.0126547296507
0.0125802752839
0.0125086589056
0.0124402331152
0.0123745042099
0.0123119320235
0.0122530509378
0.0121972823483
0.0121447054742
0.0120954454964
0.0120489959031
0.0120055687662
0.0119657160973
0.0119300873637
0.0118984333362
0.0118696316146
0.0118438140549
0.0118215831307
0.0118028521719
0.0117908039321
0.0010199940977
0.0010199940977
0.0010199940977
0.0010199940977
0.0010199940977
0.0010199940977
0.0010199940977
0.0010199940977
0.0010199940977
0.0010199940977
0.0010199940977
0.0010199940977
0.0010199940977
0.0010199940977
0.0010199940977
0.00101999409773
0.00101999409966
0.00101999421097
0.00102000035731
0.00102034032124
0.00102570217499
0.00107640723582
0.00134726795619
0.00216341926623
0.00395826014224
0.00697447481868
0.0106491889702
0.0134893197126
0.0146756827479
0.0148376313237
0.0147151883081
0.0145521423096
0.0143908251964
0.0142363149004
0.0140885656371
0.0139472853484
0.0138124714527
0.0136832785069
0.0135589627279
0.0134394263368
0.0133244589839
0.0132138604169
0.0131073815223