/*--------------------------------*- C++ -*----------------------------------*\
| =========                 |                                                 |
| \\      /  F ield         | foam-extend: Open Source CFD                    |
|  \\    /   O peration     | Version:     4.1                                |
|   \\  /    A nd           | Web:         http://www.foam-extend.org         |
|    \\/     M anipulation  |                                                 |
\*---------------------------------------------------------------------------*/
FoamFile
{
    version     2.0;
    format      ascii;
    class       volScalarField;
    location    "0.0004";
    object      T;
}
// * * * * * * * * * * * * * * * * * * * * * * * * * * * * * * * * * * * * * //

dimensions      [0 0 0 1 0 0 0];

internalField   nonuniform List<scalar> 
8400
(
226.836296598
226.836296598
226.836296598
226.836296598
226.836296598
226.836296598
226.836296598
226.836296598
226.836296598
226.836296598
226.836296598
226.836296598
226.836296598
226.836296598
226.836296598
226.836296598
226.836296598
226.836296598
226.836296598
226.836296598
226.836296598
226.836296598
226.836296605
226.836297038
226.836322168
226.837810895
226.870496887
463.894316065
3195.41423639
6794.91591593
12346.1542312
14595.5043831
16148.9692315
17082.8892207
17527.1583331
17685.0639925
17731.473791
17747.396708
17756.4032147
17764.0317724
17770.5503915
17778.0954553
17785.7958373
17793.8341535
17802.2884228
17811.2618216
17820.8069111
17831.0101508
17840.9408334
17852.4217085
17864.4767292
17877.1674873
17890.4002685
17904.2744268
17918.6973147
17933.4930915
17947.7169298
17962.9533689
17978.1916291
17993.3424625
18008.1210739
18022.308121
18035.6905432
18048.133304
18058.3365683
18068.1101414
18076.1792747
18082.3974102
18086.6302867
18098.5936401
226.836296595
226.836296595
226.836296595
226.836296595
226.836296595
226.836296595
226.836296595
226.836296595
226.836296595
226.836296595
226.836296595
226.836296595
226.836296595
226.836296595
226.836296595
226.836296595
226.836296595
226.836296595
226.836296595
226.836296595
226.836296595
226.836296596
226.836296637
226.836299134
226.836442079
226.844779543
226.957701874
1579.9621429
5310.82709198
10351.2014031
13438.0324938
15379.229368
16678.6819621
17385.5312441
17680.5170606
17772.074628
17799.728791
17814.0268221
17824.7288547
17835.1941457
17845.933515
17856.9427922
17868.3008349
17880.0130008
17892.1446427
17904.733807
17917.8975387
17931.5410921
17945.655461
17960.3141125
17975.4434035
17990.174189
18006.172161
18022.4516837
18039.109735
18055.9220037
18072.7515208
18089.5600201
18106.1172226
18122.2462714
18137.785958
18152.505674
18166.2408821
18177.9120972
18189.1670898
18198.7149384
18206.5465226
18212.6119498
18216.8907948
18225.8461273
226.836296594
226.836296594
226.836296594
226.836296594
226.836296594
226.836296594
226.836296594
226.836296594
226.836296594
226.836296594
226.836296594
226.836296594
226.836296594
226.836296594
226.836296594
226.836296594
226.836296594
226.836296594
226.836296594
226.836296594
226.836296594
226.836296597
226.836296818
226.836309957
226.837094545
226.86016627
337.804711591
2786.15248516
6262.35959593
11937.5184066
14358.2621318
16027.268215
17064.9349833
17570.9429398
17753.4031204
17806.0071821
17825.0788829
17836.414694
17846.7584368
17857.124374
17867.7543447
17878.6982709
17890.0140926
17901.7288475
17913.9386984
17926.6365623
17939.814473
17953.5150919
17967.741743
17982.4129229
17997.5241053
18013.0665578
18029.078583
18044.5655294
18061.1436413
18077.7038712
18094.2340112
18110.5942037
18126.6038037
18142.1533683
18157.0516228
18171.0808557
18184.1347592
18195.971641
18206.4460017
18214.4941391
18221.9281392
18227.5509167
18231.4063375
18238.8203134
226.836296593
226.836296593
226.836296593
226.836296593
226.836296593
226.836296593
226.836296593
226.836296593
226.836296593
226.836296593
226.836296593
226.836296593
226.836296593
226.836296593
226.836296593
226.836296593
226.836296593
226.836296593
226.836296593
226.836296593
226.836296593
226.836296609
226.836297602
226.836355916
226.839847379
226.900452604
809.304774419
4647.46773091
8849.21906453
12905.4538126
15018.1929978
16460.3371866
17290.2595353
17654.4062417
17772.4437498
17805.856199
17821.6186751
17832.7663528
17843.4619441
17854.2554396
17865.2632771
17876.5404192
17888.1475347
17900.116326
17912.5759834
17925.4912292
17938.8470297
17952.7260406
17967.0987238
17981.8747282
17997.1263353
18011.9337344
18027.897343
18044.2250541
18060.624697
18077.0401955
18093.358346
18109.420119
18125.1096794
18140.2970677
18154.7964701
18167.4028168
18179.9965572
18191.3598446
18201.3613501
18209.900984
18216.9042477
18222.2445586
18225.8872144
18232.4922785
226.836296593
226.836296593
226.836296593
226.836296593
226.836296593
226.836296593
226.836296593
226.836296593
226.836296593
226.836296593
226.836296593
226.836296593
226.836296593
226.836296593
226.836296593
226.836296593
226.836296593
226.836296593
226.836296593
226.836296593
226.836296594
226.836296643
226.83629961
226.836469871
226.846383814
226.975717676
1807.15725001
5432.50494459
10605.2484695
13569.6928208
15478.1441998
16734.6018071
17409.4238321
17680.4697908
17761.7994482
17787.0420989
17800.6729126
17813.0314718
17824.2292997
17835.5930246
17847.2490661
17859.1607039
17871.4116516
17884.0312678
17897.0415378
17910.5781917
17924.582016
17938.1465654
17953.0255984
17968.2686191
17983.9049908
17999.8582884
18016.0692513
18032.6100612
18049.2938927
18065.8902314
18082.293391
18098.374937
18113.1591671
18128.3306567
18142.6363521
18156.0152122
18168.3234641
18179.4651129
18189.264197
18197.6240318
18204.4307893
18209.6348045
18213.1701885
18219.3265935
226.836296592
226.836296592
226.836296592
226.836296592
226.836296592
226.836296592
226.836296592
226.836296592
226.836296592
226.836296592
226.836296592
226.836296592
226.836296592
226.836296592
226.836296592
226.836296592
226.836296592
226.836296592
226.836296592
226.836296593
226.836296594
226.836296705
226.83630358
226.836719396
226.854606119
268.700753609
2531.15561808
5942.47613028
11501.8801028
14064.5464891
15803.4519457
16910.6256499
17465.2103173
17672.0808498
17732.7144777
17754.2036661
17767.8513371
17780.1749224
17792.3615515
17804.6813248
17817.2039432
17829.9692054
17843.0803287
17856.5402168
17870.3999138
17884.6382354
17899.3012851
17914.4165565
17929.9784257
17945.8784919
17962.1254129
17978.6855715
17995.4450835
18012.3915027
18028.6638425
18045.6450838
18062.3077435
18078.6002969
18094.3737145
18109.6518483
18124.1189493
18137.5718834
18149.869662
18160.9905319
18169.8629057
18178.278206
18185.1115238
18190.2882508
18193.7645617
18199.6149873
226.836296592
226.836296592
226.836296592
226.836296592
226.836296592
226.836296592
226.836296592
226.836296592
226.836296592
226.836296592
226.836296592
226.836296592
226.836296592
226.836296592
226.836296592
226.836296592
226.836296592
226.836296592
226.836296592
226.836296592
226.836296597
226.836296898
226.836314676
226.837375856
226.864518307
387.852399792
2940.4335512
6466.01679074
12124.3381902
14450.6421361
16049.0970923
17019.0775912
17481.3836085
17642.8922414
17691.067912
17710.937836
17725.3521325
17738.7291718
17751.9765654
17765.3105901
17778.8446588
17792.6165683
17806.6616483
17821.0894068
17835.8648106
17850.9986756
17866.5424458
17882.4497172
17898.7809888
17915.4972781
17932.5627572
17948.9103469
17966.3914639
17983.8940904
18001.4188372
18018.8238482
18035.9051851
18052.5748159
18068.7381025
18084.2546232
18098.0483339
18111.7484173
18124.1671659
18135.2714919
18145.0325036
18153.4554593
18160.324896
18165.5245062
18168.994351
18174.6288202
226.836296592
226.836296592
226.836296592
226.836296592
226.836296592
226.836296592
226.836296592
226.836296592
226.836296592
226.836296592
226.836296592
226.836296592
226.836296592
226.836296592
226.836296592
226.836296592
226.836296592
226.836296592
226.836296592
226.836296592
226.836296603
226.836297246
226.836335212
226.838642196
226.884194294
631.284768558
4097.11440167
7589.4890686
12614.7027394
14765.4774494
16228.02762
17087.2876638
17472.5702921
17600.2236325
17640.2084589
17659.2870731
17674.4967842
17688.9833947
17703.3962795
17717.9888001
17732.6516586
17747.504296
17762.6143937
17778.0516297
17793.7835624
17809.8999963
17826.3937116
17843.2661075
17859.66805
17877.2237855
17895.0575458
17913.0052964
17931.0261259
17949.1687354
17967.2727702
17985.2157103
18001.9185465
18019.0696798
18035.5226229
18051.3611298
18066.2727379
18080.1251034
18092.8023237
18104.1885683
18114.0823063
18122.533462
18128.4446736
18133.7109597
18137.220514
18142.8287041
226.836296592
226.836296592
226.836296592
226.836296592
226.836296592
226.836296592
226.836296592
226.836296592
226.836296592
226.836296592
226.836296592
226.836296592
226.836296592
226.836296592
226.836296592
226.836296592
226.836296592
226.836296592
226.836296592
226.836296592
226.836296616
226.836298024
226.836380184
226.841288387
226.919175892
1050.36307408
4937.1714566
9408.36979717
13024.466999
15027.1258396
16371.4214263
17123.5440133
17444.2403933
17547.0609765
17581.5196772
17600.3367508
17616.4874618
17632.1715454
17647.8523023
17663.5990201
17679.4480266
17695.450548
17711.782382
17728.2956057
17745.1315499
17761.4030063
17778.8812884
17796.6610519
17814.7765093
17833.1873078
17851.7460334
17870.4599485
17889.3453801
17907.2679872
17925.9939587
17944.4177799
17962.4972095
17980.0709807
17997.0298002
18013.2217564
18027.5066004
18041.5966604
18054.5352867
18066.0984813
18076.1847484
18084.6872562
18091.5500192
18096.7540017
18100.2874961
18105.830669
226.836296592
226.836296592
226.836296592
226.836296592
226.836296592
226.836296592
226.836296592
226.836296592
226.836296592
226.836296592
226.836296592
226.836296592
226.836296592
226.836296592
226.836296592
226.836296592
226.836296592
226.836296592
226.836296592
226.836296593
226.836296638
226.836299379
226.836456522
226.845598734
226.968015436
1668.88835031
5350.2233916
10352.4730538
13381.3114033
15249.3841183
16476.6900621
17134.445594
17401.5143122
17485.9535451
17516.0335278
17535.1070805
17552.2328927
17569.1419436
17585.959423
17602.8908369
17619.9360028
17637.2012997
17653.8729636
17671.5365027
17689.4419085
17707.5929666
17726.0360569
17744.750904
17763.7539081
17783.0833983
17801.6387719
17821.2073332
17840.6777887
17860.1715089
17879.5288978
17898.5988344
17916.3454511
17934.4523784
17951.7850118
17968.2086364
17983.7393675
17998.1280825
18011.285362
18023.0418993
18033.3748007
18041.1194855
18048.1251506
18053.3737074
18056.9104397
18062.287676
226.836296592
226.836296592
226.836296592
226.836296592
226.836296592
226.836296592
226.836296592
226.836296592
226.836296592
226.836296592
226.836296592
226.836296592
226.836296592
226.836296592
226.836296592
226.836296592
226.836296592
226.836296592
226.836296592
226.836296593
226.836296674
226.836301427
226.836568389
226.851520353
232.555449476
2295.41090722
5693.41094061
11032.9194662
13702.00192
15442.4120236
16553.6298867
17125.5479782
17345.4235467
17415.8014716
17443.964025
17463.896095
17482.2671527
17500.3836094
17518.4835371
17535.8646694
17554.1788728
17572.5500472
17591.0693899
17609.8520782
17628.8518464
17648.0412822
17667.5643159
17686.4605905
17706.4469509
17726.5709587
17746.8429981
17767.1171069
17787.4579103
17806.8141899
17826.7323924
17846.3501606
17865.5210205
17884.0073154
17901.8625388
17917.8884208
17933.688836
17948.3382186
17961.6746935
17973.5969202
17984.0478151
17992.8496983
17999.9914701
18005.3556832
18008.9325136
18014.1040264
226.836296592
226.836296592
226.836296592
226.836296592
226.836296592
226.836296592
226.836296592
226.836296592
226.836296592
226.836296592
226.836296592
226.836296592
226.836296592
226.836296592
226.836296592
226.836296592
226.836296592
226.836296592
226.836296592
226.836296595
226.836296762
226.836306918
226.83691295
226.858141022
300.64523106
2653.90687638
6053.59865945
11566.0962316
13991.2775426
15612.2450676
16604.3240683
17098.8460443
17281.0479989
17339.3777622
17366.3493633
17387.1449354
17406.9125387
17425.6208201
17444.9957407
17464.3930109
17483.7990178
17503.3888518
17523.0792201
17543.0710489
17562.3424065
17582.6901266
17603.1070495
17623.7942091
17644.6955133
17665.710662
17685.9917127
17707.1207908
17728.1086836
17749.0417313
17769.6136354
17789.8309014
17808.5603872
17827.6361018
17845.8195819
17863.0723653
17879.2552051
17894.2147038
17906.8249152
17918.9729391
17929.5853327
17938.5362584
17945.7352483
17951.109095
17954.6480809
17959.607836
226.836296592
226.836296592
226.836296592
226.836296592
226.836296592
226.836296592
226.836296592
226.836296592
226.836296592
226.836296592
226.836296592
226.836296592
226.836296592
226.836296592
226.836296592
226.836296592
226.836296592
226.836296592
226.836296592
226.836296598
226.836296965
226.836318428
226.837581603
226.868049083
416.525172311
3012.33543911
6508.99768007
12037.1607478
14267.4345197
15754.870053
16638.6554521
17056.790992
17206.1126008
17256.5275274
17283.1649327
17304.5431107
17325.7353094
17346.6195338
17367.3456566
17388.0040594
17408.7173705
17429.5008427
17449.6102212
17470.6851616
17491.9012576
17513.2270991
17534.8309661
17555.6659774
17577.4959577
17599.3053219
17621.2524162
17643.1653742
17664.0349151
17685.6071552
17706.7718305
17727.4743231
17747.7100317
17767.2942677
17784.9275454
17802.4748845
17818.917386
17834.1269558
17847.9542438
17860.2860335
17871.0597842
17879.1549964
17886.4846508
17891.9048203
17895.4402464
17900.1892134
226.836296592
226.836296592
226.836296592
226.836296592
226.836296592
226.836296592
226.836296592
226.836296592
226.836296592
226.836296592
226.836296592
226.836296592
226.836296592
226.836296592
226.836296592
226.836296592
226.836296592
226.836296592
226.836296592
226.836296605
226.836297367
226.836341832
226.839004838
226.889912949
669.198504097
4209.03094599
7507.21442386
12469.7232322
14520.7133518
15875.2979536
16654.6046363
17003.8231145
17124.0761086
17167.7346433
17194.5369162
17218.0378683
17240.6889251
17263.0026349
17285.1697643
17306.5308757
17328.5056043
17350.489912
17372.5989314
17394.8002447
17416.354328
17438.8019348
17461.2964048
17483.9766716
17506.764416
17528.6870319
17551.4013813
17573.9659838
17596.3499514
17618.6621935
17639.5705994
17660.8452306
17681.3765133
17701.2463623
17720.3152853
17737.3327722
17754.1342298
17769.5769975
17783.6142505
17796.1122292
17806.9365202
17815.9654317
17823.1967377
17828.7078025
17831.2953343
17837.0370359
226.836296592
226.836296592
226.836296592
226.836296592
226.836296592
226.836296592
226.836296592
226.836296592
226.836296592
226.836296592
226.836296592
226.836296592
226.836296592
226.836296592
226.836296592
226.836296592
226.836296592
226.836296592
226.836296592
226.836296621
226.836298338
226.836397368
226.842205587
226.93142285
1157.47687285
5001.33968151
9356.49868734
12870.2510406
14754.8469101
15977.3799116
16653.0551972
16939.5529043
17036.2300756
17075.3397046
17102.4832505
17127.2109409
17151.4505251
17174.5169224
17198.145511
17221.5304457
17244.8188371
17268.2075861
17290.7741006
17314.1512093
17337.6126215
17361.1637246
17383.9214228
17407.5660633
17431.1812649
17454.6705831
17478.2277352
17500.7066149
17523.8623852
17546.5575155
17568.9790304
17589.8246683
17610.9636459
17631.1905408
17650.4242343
17668.7618732
17684.8659606
17700.5926035
17714.7416941
17727.3213602
17738.2323447
17747.3452766
17754.6240942
17760.0668563
17763.655581
17768.1087037
226.836296592
226.836296592
226.836296592
226.836296592
226.836296592
226.836296592
226.836296592
226.836296592
226.836296592
226.836296592
226.836296592
226.836296592
226.836296592
226.836296592
226.836296592
226.836296592
226.836296592
226.836296592
226.836296593
226.836296655
226.836300353
226.836508358
226.848244845
226.998399238
1938.93495655
5447.43081269
10384.7328315
13249.4759253
14967.3465871
16057.7025671
16633.179006
16864.023035
16942.6415195
16978.9209184
17006.7560854
17032.82153
17057.7391174
17083.01763
17107.9570853
17132.8160283
17156.7906296
17181.3889565
17205.9544747
17230.5614331
17254.3615016
17278.9204167
17303.5433012
17328.0818536
17351.7523011
17376.1827332
17400.3846
17424.4838485
17447.314061
17470.7415377
17493.5629698
17515.7894196
17536.3748348
17556.9850794
17576.6227636
17595.1240951
17612.4649159
17627.3494919
17641.6743533
17654.3836628
17665.3659069
17674.5626886
17681.9121899
17687.3601937
17690.8869079
17695.0785149
226.836296592
226.836296592
226.836296592
226.836296592
226.836296592
226.836296592
226.836296592
226.836296592
226.836296592
226.836296592
226.836296592
226.836296592
226.836296592
226.836296592
226.836296592
226.836296592
226.836296592
226.836296592
226.836296594
226.836296726
226.836304693
226.83677538
226.856605025
272.574992629
2525.08481475
5865.78590648
11122.2862619
13599.8029131
15158.1646361
16116.3064462
16595.6892381
16779.4337259
16844.2782375
16878.9864707
16907.151341
16934.6133788
16961.5730482
16988.253958
17013.8961233
17040.0146617
17066.0142511
17091.1709566
17116.9379671
17142.6258928
17168.3540713
17193.2064917
17218.7734495
17244.2570625
17268.8361175
17294.019237
17318.9591274
17343.7272919
17367.2086091
17391.1715802
17414.4518301
17437.1852664
17458.0072317
17479.0274987
17498.9916166
17517.7279874
17535.117323
17551.146121
17564.5922982
17577.4752458
17588.5651914
17597.8165684
17605.1900929
17610.6113914
17614.1073457
17618.095781
226.836296592
226.836296592
226.836296592
226.836296592
226.836296592
226.836296592
226.836296592
226.836296592
226.836296592
226.836296592
226.836296592
226.836296592
226.836296592
226.836296592
226.836296592
226.836296592
226.836296592
226.836296592
226.836296598
226.836296974
226.836318705
226.83758019
226.868793856
406.629468006
2953.64710167
6360.82783959
11748.7509443
13924.4431435
15325.2919697
16151.5993444
16542.8164581
16686.5936903
16741.5446959
16774.9546577
16805.0594293
16834.050021
16861.7734613
16889.8601081
16917.6299568
16944.4778407
16971.6900163
16998.8069909
17024.986317
17051.8302696
17078.4678423
17105.1393371
17130.8225309
17157.1438597
17183.4212918
17208.4732131
17234.2646177
17259.593803
17284.5372301
17308.1239917
17331.9177287
17354.9463203
17377.209593
17397.4763417
17417.7110914
17436.6801602
17454.3309045
17470.4587335
17483.943303
17496.8678392
17507.9823725
17517.2512156
17524.6330871
17530.0547585
17533.5340322
17537.2860665
226.836296592
226.836296592
226.836296592
226.836296592
226.836296592
226.836296592
226.836296592
226.836296592
226.836296592
226.836296592
226.836296592
226.836296592
226.836296592
226.836296592
226.836296592
226.836296592
226.836296592
226.836296592
226.836296608
226.836297583
226.836353662
226.839637499
226.899373993
731.483022134
4366.39633335
7408.45851958
12301.8106961
14231.1446149
15466.724265
16164.2804349
16475.3711529
16586.6166436
16634.5419633
16668.8692418
16700.4070934
16730.2652547
16760.2408973
16788.9824484
16818.0727473
16846.9598604
16874.7320945
16902.9806503
16931.0905056
16958.2062488
16985.952003
17013.4990617
17039.9960818
17067.2403473
17094.1705766
17120.0465375
17146.4023995
17172.2463111
17197.8125893
17221.8083248
17246.0963481
17269.5201777
17292.0264273
17312.5799019
17333.0437715
17352.1320092
17369.9792654
17385.1997586
17399.9219674
17412.819072
17423.9262765
17433.1741399
17440.5322955
17445.9558079
17449.4222302
17452.9542177
226.836296592
226.836296592
226.836296592
226.836296592
226.836296592
226.836296592
226.836296592
226.836296592
226.836296592
226.836296592
226.836296592
226.836296592
226.836296592
226.836296592
226.836296592
226.836296592
226.836296592
226.836296593
226.836296639
226.8362994
226.836455083
226.845270099
226.967593121
1513.67169273
5201.91949991
9580.09931478
12798.2407711
14505.5786526
15580.8232968
16155.9547738
16395.7417832
16482.1083079
16525.6090515
16560.5557986
16592.8009603
16624.9650747
16655.694696
16686.7186608
16716.4045369
16746.4867158
16776.2010437
16804.8269385
16834.0145319
16862.9297979
16890.8063233
16919.2979264
16946.6915846
16974.6566176
17002.2927547
17028.7561033
17055.7779171
17082.1580512
17108.091955
17132.5745224
17157.2528271
17181.0282456
17202.8895991
17224.6432936
17245.1761242
17264.4186318
17282.3934661
17297.7401891
17312.4303964
17325.3211372
17336.4232658
17345.6594858
17353.0186499
17358.4448545
17361.8934243
17365.1817572
226.836296592
226.836296592
226.836296592
226.836296592
226.836296592
226.836296592
226.836296592
226.836296592
226.836296592
226.836296592
226.836296592
226.836296592
226.836296592
226.836296592
226.836296592
226.836296592
226.836296592
226.836296594
226.836296717
226.836303813
226.836710163
226.856067021
257.72561768
2437.49854802
5739.76055252
10731.8039477
13242.1521019
14748.7435898
15663.1480807
16123.7095728
16304.5710559
16373.2980987
16414.5269845
16449.6891014
16484.1481275
16516.9770677
16549.9626411
16581.5413802
16613.4060323
16643.9292899
16674.8577878
16704.6637959
16734.7815185
16764.7186675
16793.430565
16822.7771295
16850.8820218
16879.6117333
16907.9550855
16935.118307
16962.5924765
16989.6136234
17015.0450683
17040.742328
17065.5672078
17089.6447691
17111.7370061
17133.6135193
17154.2766129
17173.6159849
17190.5518251
17206.9775238
17221.7037242
17234.6732632
17245.7785549
17254.9878307
17262.3133214
17266.5761009
17270.0124076
17273.0068886
226.836296592
226.836296592
226.836296592
226.836296592
226.836296592
226.836296592
226.836296592
226.836296592
226.836296592
226.836296592
226.836296592
226.836296592
226.836296592
226.836296592
226.836296592
226.836296592
226.836296592
226.8362966
226.836297058
226.836323093
226.837801438
226.87275697
428.27651345
2992.7622561
6331.36972316
11560.0479285
13651.6053713
14956.1388863
15713.7786325
16070.3373139
16203.5586573
16260.5520741
16301.0954833
16337.540854
16373.2920941
16407.6034824
16441.8432318
16474.7665582
16507.8534398
16539.5557428
16571.6528369
16602.4027675
16633.6647165
16664.4007251
16694.0993169
16724.2476085
16753.0894657
16782.446233
16811.4206601
16839.0034052
16867.0433757
16894.4346753
16920.2900264
16946.3274173
16971.485412
16994.7828428
17017.9752478
17039.9564653
17060.7396635
17079.0647439
17096.9902343
17113.3825679
17128.0471756
17140.9952685
17152.133223
17160.1843658
17167.4282695
17172.6500331
17175.9391844
17178.6771345
226.836296592
226.836296592
226.836296592
226.836296592
226.836296592
226.836296592
226.836296592
226.836296592
226.836296592
226.836296592
226.836296592
226.836296592
226.836296592
226.836296592
226.836296592
226.836296592
226.836296592
226.836296619
226.836298184
226.836385819
226.841316094
226.922384715
947.016042218
4715.579585
7753.14435254
12233.5405624
14014.7467794
15119.7049493
15730.0716876
15996.0047482
16095.4669283
16146.2416367
16186.494909
16224.9479786
16261.5276819
16297.884711
16332.6766675
16366.8192266
16400.9188963
16433.9136975
16466.9003255
16499.5185462
16530.7949804
16562.5106825
16592.9606521
16623.8859843
16653.4892589
16683.330807
16712.8215516
16740.9566727
16769.3782603
16796.229816
16823.289916
16849.4667104
16873.7806486
16898.2592144
16921.5749426
16943.7111935
16963.4800036
16982.863221
17000.6434644
17016.8394798
17031.507475
17043.3570229
17054.4569287
17063.5484734
17070.6304001
17075.7709539
17078.9695848
17081.4142131
226.836296592
226.836296592
226.836296592
226.836296592
226.836296592
226.836296592
226.836296592
226.836296592
226.836296592
226.836296592
226.836296592
226.836296592
226.836296592
226.836296592
226.836296592
226.836296592
226.836296593
226.836296689
226.836302137
226.836598037
226.852383712
227.045322321
2156.85628598
5494.53473458
10065.0044578
12809.9187132
14327.6603256
15245.8131135
15714.9510237
15906.7565632
15982.9259136
16029.8437861
16071.4877772
16110.7190482
16148.7913059
16186.513151
16222.5565136
16258.5697661
16293.1224854
16326.9975388
16361.0603224
16393.7778107
16426.6311603
16458.2892611
16490.2246736
16521.8063777
16551.953191
16582.5454902
16611.6106501
16640.9464567
16669.7329448
16696.8008915
16724.0678885
16750.5203294
16774.9544068
16799.3878745
16822.8110269
16843.890414
16864.7207703
16883.9487225
16901.7784962
16916.8328618
16931.3545936
16944.1149693
16955.0305643
16964.049869
16971.082809
16976.2503068
16978.3179144
16980.5456776
226.836296592
226.836296592
226.836296592
226.836296592
226.836296592
226.836296592
226.836296592
226.836296592
226.836296592
226.836296592
226.836296592
226.836296592
226.836296592
226.836296592
226.836296592
226.836296592
226.836296599
226.836297022
226.836320859
226.837654454
226.871421368
396.405877164
2883.51702408
6161.64452113
11201.6430158
13313.7418688
14585.5794126
15320.8676565
15669.8639773
15805.5208951
15866.8692441
15913.2092966
15955.3052915
15995.9162706
16035.317697
16074.3120933
16111.6676286
16148.7744875
16184.4532047
16219.334746
16254.2349219
16287.7460344
16321.435268
16353.6570203
16386.3312584
16417.5858827
16449.1122005
16479.0984576
16509.3899424
16539.2018643
16567.280893
16595.5388645
16623.019814
16648.4437125
16673.9674285
16698.4896411
16720.693249
16742.8087042
16763.5273939
16781.7519589
16799.3445677
16815.3027343
16829.5747399
16842.2323677
16851.8537363
16860.8512775
16867.8581381
16872.8934456
16875.9907539
16877.8687435
226.836296592
226.836296592
226.836296592
226.836296592
226.836296592
226.836296592
226.836296592
226.836296592
226.836296592
226.836296592
226.836296592
226.836296592
226.836296592
226.836296592
226.836296592
226.836296592
226.836296624
226.83629845
226.836399439
226.841995512
226.93191453
999.891584147
4733.63908044
7498.99974079
12031.5266713
13743.7928145
14783.166524
15349.8562264
15597.9231478
15695.0739435
15750.0132469
15795.9068116
15839.3221563
15881.2038105
15921.7292425
15961.8828338
16000.3976948
16037.7912277
16075.0812837
16110.7874361
16146.5844686
16180.8389627
16215.247017
16248.1176373
16281.2727525
16312.9057066
16344.9299963
16375.2459712
16405.9257373
16434.8506948
16464.037385
16492.4390739
16518.9107789
16545.5022797
16569.9677469
16594.416188
16617.6396567
16639.7213832
16659.1488424
16678.2550813
16695.6957136
16711.5693461
16724.5443593
16736.9583125
16747.4991654
16756.3064969
16763.1932908
16768.099739
16771.1115402
16771.46371
226.836296592
226.836296592
226.836296592
226.836296592
226.836296592
226.836296592
226.836296592
226.836296592
226.836296592
226.836296592
226.836296592
226.836296592
226.836296592
226.836296592
226.836296592
226.836296594
226.836296736
226.836304612
226.836735157
226.857443891
255.338976882
2382.69369569
5625.79810366
10130.2937184
12700.3944242
14097.3253392
14921.8586607
15336.6618121
15506.5933282
15580.2742009
15631.7778121
15678.4817376
15723.225783
15766.4254556
15808.2272178
15849.4398814
15888.7850615
15927.1876938
15965.2715574
16001.8133897
16037.49835
16073.229438
16107.3120674
16141.5735191
16174.3437398
16207.3060638
16238.6190194
16270.2289704
16300.0875707
16330.1267444
16358.3793866
16386.8002479
16414.3794217
16439.838239
16465.2465808
16489.5446489
16511.5347065
16533.2810264
16553.6571746
16572.537047
16588.6109826
16604.2651286
16618.137575
16630.2605858
16640.777286
16648.208648
16654.9879183
16659.8443672
16662.8103261
16664.1206516
226.836296592
226.836296592
226.836296592
226.836296592
226.836296592
226.836296592
226.836296592
226.836296592
226.836296592
226.836296592
226.836296592
226.836296592
226.836296592
226.836296592
226.836296592
226.836296607
226.836297477
226.836344761
226.838911527
226.889750281
560.992769588
3370.25043034
6444.43880414
11349.6278931
13244.9823753
14369.1068094
14995.9147533
15285.7845454
15400.4737344
15462.7500032
15513.7101444
15561.5630733
15607.515187
15651.8687893
15694.783776
15736.3520355
15777.3212196
15816.4134605
15854.6084012
15892.6028157
15928.7718961
15964.2241422
15999.6817538
16033.3838739
16067.3501325
16099.7549206
16132.2187397
16163.0759487
16194.051326
16223.2733947
16252.483365
16280.7405107
16307.1049873
16333.5007893
16358.7477345
16381.7220852
16404.570303
16426.066548
16444.9329269
16463.5908959
16480.591778
16495.976386
16508.5458015
16520.4569094
16530.5668112
16538.9394056
16545.5488735
16550.3582623
16553.4142131
16553.2557663
226.836296592
226.836296592
226.836296592
226.836296592
226.836296592
226.836296592
226.836296592
226.836296592
226.836296592
226.836296592
226.836296592
226.836296592
226.836296592
226.836296592
226.836296593
226.836296681
226.836301537
226.836559596
226.850075277
227.024048016
1864.21706686
5281.79950513
8983.27781629
12210.2591605
13685.4397113
14562.1864782
15014.0266758
15204.3908985
15287.8472313
15344.9140582
15396.3951662
15445.4596768
15492.5008804
15537.9538844
15581.8054851
15624.2084425
15665.3288871
15705.9578279
15744.7511265
15782.3795036
15819.9234841
15855.8047897
15890.7619225
15925.7119096
15958.9493543
15992.3366053
16023.9950851
16055.912724
16085.881721
16115.9133884
16144.0269799
16172.2431359
16199.5662267
16224.6257429
16249.6683761
16273.4612905
16294.8453566
16315.9255701
16335.6012906
16353.9687822
16369.3868037
16384.5344609
16397.9367814
16409.6702188
16418.3141613
16426.5265376
16432.8919547
16437.4920459
16440.3351362
16441.1271092
226.836296592
226.836296592
226.836296592
226.836296592
226.836296592
226.836296592
226.836296592
226.836296592
226.836296592
226.836296592
226.836296592
226.836296592
226.836296592
226.836296592
226.836296603
226.836297231
226.836331458
226.838173636
226.880112265
447.49780111
2970.88008697
6145.13491207
10854.9610512
12875.6909607
14026.3847672
14672.3156118
14978.3242157
15103.0944009
15171.4778125
15227.0000196
15279.5144641
15329.6916969
15377.7802602
15424.0968166
15469.4119475
15512.5733441
15554.2920471
15594.7637478
15634.0556925
15672.9786857
15710.0264098
15746.2124905
15782.3456666
15816.58989
15850.9129692
15883.3815913
15916.0045792
15946.7036565
15977.6743353
16006.610846
16035.5493921
16062.4291497
16089.3819136
16115.3498545
16138.9594981
16162.3680177
16184.5825866
16204.0908177
16223.4035036
16241.2148333
16257.6370883
16271.0794211
16284.2024266
16295.5082289