/*--------------------------------*- C++ -*----------------------------------*\
| =========                 |                                                 |
| \\      /  F ield         | foam-extend: Open Source CFD                    |
|  \\    /   O peration     | Version:     4.1                                |
|   \\  /    A nd           | Web:         http://www.foam-extend.org         |
|    \\/     M anipulation  |                                                 |
\*---------------------------------------------------------------------------*/
FoamFile
{
    version     2.0;
    format      ascii;
    class       volVectorField;
    location    "0.0004";
    object      U;
}
// * * * * * * * * * * * * * * * * * * * * * * * * * * * * * * * * * * * * * //

dimensions      [0 1 -1 0 0 0 0];

internalField   nonuniform List<vector> 
8400
(
(16999.9999955 4.51858579055e-09 2.87697552163e-11)
(16999.9999955 4.58962580279e-09 2.86378394347e-11)
(16999.9999955 4.65930477411e-09 2.85047651837e-11)
(16999.9999955 4.7276424116e-09 2.83748505034e-11)
(16999.9999955 4.79465929464e-09 2.82534859745e-11)
(16999.9999955 4.8603758339e-09 2.81335691384e-11)
(16999.9999956 4.92481284466e-09 2.80155255526e-11)
(16999.9999956 4.98799150168e-09 2.79015881431e-11)
(16999.9999956 5.04993136599e-09 2.77898491615e-11)
(16999.9999956 5.11065306471e-09 2.76817875098e-11)
(16999.9999956 5.17017611762e-09 2.75763077996e-11)
(16999.9999956 5.2285208315e-09 2.74729678481e-11)
(16999.9999956 5.28570620553e-09 2.73723090164e-11)
(16999.9999956 5.34175166099e-09 2.72718676519e-11)
(16999.9999956 5.39667649983e-09 2.71803315503e-11)
(16999.9999956 5.45050009969e-09 2.70873203305e-11)
(16999.9999957 5.50324080531e-09 2.69974235456e-11)
(16999.9999957 5.55491655956e-09 2.69124658489e-11)
(16999.9999957 5.60554569235e-09 2.68233292338e-11)
(16999.9999957 5.65515423434e-09 2.65758447499e-11)
(16999.9999957 5.70422316406e-09 1.66605578983e-11)
(16999.9999957 5.78036952458e-09 -5.60972372259e-10)
(16999.9999956 7.50115955898e-09 -3.39761894127e-08)
(16999.9999878 9.53145169223e-08 -1.79238149723e-06)
(16999.9995014 5.23346584132e-06 -0.000101416141473)
(16999.9719693 1.7884703611e-05 -0.00110529369191)
(16997.3545616 0.00741554686112 -0.0105641194332)
(16941.7801231 -1.12939999434 -0.0777670972969)
(16362.3310397 -8.53012060829 -0.120534943384)
(13942.6199673 -31.8453785851 -0.0160877542767)
(10021.9353635 -51.248919931 0.0458971396932)
(6321.97109545 -56.5182654568 0.0376299077321)
(3643.66515052 -42.4767863113 0.0241079027147)
(2074.02537039 -12.4368655886 0.0138774876609)
(1347.27816716 25.831187992 0.00712774372767)
(1090.20253498 64.8914932182 0.00357567761572)
(1009.49346882 101.222311338 0.00221076018718)
(974.873070966 134.208248926 0.00179505917852)
(949.323171584 164.115767211 0.0016596158647)
(924.609341318 191.313414662 0.00159092769711)
(898.957649937 216.146267884 0.00153171168407)
(872.177484538 238.944313559 0.00146809867995)
(844.552887588 259.965400896 0.0014008728233)
(816.13604978 279.441533284 0.00133130909648)
(787.030527939 297.574264517 0.0012598611618)
(757.334505585 314.53972778 0.00118743164808)
(727.13787482 330.491519662 0.00111534804859)
(696.595235445 345.564391685 0.00104361298401)
(665.611087792 359.871398454 0.000968665495065)
(634.289661544 373.530733305 0.000887814441728)
(602.925645529 386.621127944 0.000802574700788)
(571.474503744 399.218777612 0.000715181850127)
(539.893052177 411.366454413 0.00062362515296)
(508.181905241 423.113468748 0.000522717401402)
(476.424931762 434.488373175 0.000409488543456)
(444.805174365 445.5046797 0.000280733831292)
(413.181252965 456.156931893 0.000129857272132)
(381.527204574 466.443004721 -4.7724544813e-05)
(350.022794322 476.326791802 -0.000255156145464)
(318.622237315 485.766624642 -0.000500431656675)
(287.376595951 494.708734318 -0.000795767432827)
(256.335540086 503.091810442 -0.00115727647214)
(225.537737031 510.848853486 -0.00160137156734)
(195.10301131 517.90925795 -0.00214431977236)
(164.844165567 524.181850494 -0.00281613933446)
(134.824996334 529.608856672 -0.00365806487555)
(105.40935692 534.108299398 -0.00471178734469)
(76.6096617432 537.610869244 -0.0060287325651)
(48.3050572534 540.056060808 -0.00763922161037)
(34.1996419371 541.380362076 -0.00911008076216)
(16999.9999972 2.8323550089e-09 -7.72053158684e-13)
(16999.9999972 2.87777751392e-09 -7.06810544288e-13)
(16999.9999972 2.92235662125e-09 -6.43433995047e-13)
(16999.9999972 2.96610392016e-09 -5.82420003525e-13)
(16999.9999972 3.00903113588e-09 -5.22068733464e-13)
(16999.9999972 3.05115070473e-09 -4.63591859981e-13)
(16999.9999972 3.09247348528e-09 -4.07549493826e-13)
(16999.9999972 3.13301134021e-09 -3.52995800047e-13)
(16999.9999972 3.17277596068e-09 -3.0040270318e-13)
(16999.9999972 3.21177914139e-09 -2.4871787696e-13)
(16999.9999972 3.25003229761e-09 -1.98606361526e-13)
(16999.9999972 3.28754714283e-09 -1.50249065283e-13)
(16999.9999972 3.32433499171e-09 -1.02146198914e-13)
(16999.9999972 3.36040753919e-09 -5.5959832548e-14)
(16999.9999972 3.39577617311e-09 -1.1429192043e-14)
(16999.9999973 3.4304516145e-09 3.16855118048e-14)
(16999.9999973 3.46444519606e-09 7.28313874945e-14)
(16999.9999973 3.49776839888e-09 1.14825473887e-13)
(16999.9999973 3.5304336703e-09 1.50925219493e-13)
(16999.9999973 3.56253912968e-09 4.88150851938e-14)
(16999.9999973 3.59941046427e-09 -8.38478545493e-12)
(16999.9999973 3.9621973357e-09 -5.13949627825e-10)
(16999.9999965 2.3899260869e-08 -2.87104877831e-08)
(16999.9999521 1.19344823552e-06 -1.64169320958e-06)
(16999.9971563 7.13037302786e-05 -4.52145338351e-05)
(16999.8411129 0.00365462972286 -0.000521225232186)
(16984.3179638 0.363603714513 -0.00794558290844)
(16811.398948 2.61278761137 -0.0344544502465)
(15554.0507193 19.7772210673 -0.0346204015233)
(12312.3182654 61.242813982 -0.00179690847192)
(8324.82135628 119.460541883 0.0105632771237)
(4979.89847028 175.94237242 0.00866001690939)
(2767.97306305 224.354557881 0.00592787250346)
(1585.82543441 264.280023561 0.00370827371555)
(1097.52733516 296.699827401 0.00219952682134)
(936.655495486 323.901805911 0.00143295150943)
(877.540898936 348.370761755 0.00115485913283)
(842.333321629 371.2247364 0.0010707772778)
(812.291126735 392.78643052 0.00103813953206)
(783.326241543 413.196132338 0.00101523971744)
(754.731150249 432.543922399 0.000991778326882)
(726.358691801 450.924534663 0.000965471429068)
(698.188307773 468.42041631 0.000936260335081)
(670.224407651 485.111613864 0.000904100718888)
(642.456066214 501.074316601 0.000868759347496)
(614.871155042 516.380640381 0.000830123845096)
(587.476080351 531.096220884 0.000788252058889)
(560.287980921 545.27874026 0.000742919784095)
(533.327096826 558.977308035 0.000693233082028)
(506.648393798 572.240654012 0.000638542978781)
(480.345389794 585.099068605 0.000578678785302)
(454.194438421 597.583761435 0.000512963370993)
(428.154660531 609.718127844 0.000440428604407)
(402.409909794 621.506994539 0.000360337113006)
(376.956319115 632.94110345 0.000271557736248)
(351.85498057 644.011877073 0.00017232893554)
(327.076056282 654.698303289 6.0895309151e-05)
(302.573911447 664.976771132 -6.37710541863e-05)
(278.330111411 674.806811755 -0.000202293230662)
(254.355220537 684.142091114 -0.000355701876617)
(230.71398846 692.928903996 -0.00052491421496)
(207.484676279 701.107441736 -0.000709951917522)
(184.736638462 708.615097842 -0.000909743628862)
(162.243521992 715.399383216 -0.0011223283455)
(140.018476082 721.404657775 -0.00134420989793)
(118.254121558 726.577431055 -0.00156833605036)
(96.8906522102 730.86303686 -0.00178377146048)
(75.9091637571 734.22447668 -0.00197546117908)
(55.3123616161 736.630487787 -0.00211392452423)
(45.2696057654 737.889120357 -0.0021243172902)
(16999.9999981 1.50292618576e-09 -1.45215689379e-12)
(16999.9999981 1.52825226191e-09 -1.44483911644e-12)
(16999.9999981 1.55314222344e-09 -1.43812774452e-12)
(16999.9999981 1.5776009476e-09 -1.43156177272e-12)
(16999.9999981 1.60163268743e-09 -1.42484264417e-12)
(16999.9999981 1.62524246059e-09 -1.41806700469e-12)
(16999.9999981 1.64843508196e-09 -1.41126779266e-12)
(16999.9999981 1.67121464287e-09 -1.40395182881e-12)
(16999.9999981 1.69358602932e-09 -1.39701902975e-12)
(16999.9999981 1.7155541413e-09 -1.39029997098e-12)
(16999.9999981 1.7371239423e-09 -1.38188647097e-12)
(16999.9999981 1.75830028442e-09 -1.37419831892e-12)
(16999.9999981 1.77908860683e-09 -1.36757699761e-12)
(16999.9999981 1.79949411361e-09 -1.36074192491e-12)
(16999.9999981 1.81952187192e-09 -1.35421020583e-12)
(16999.9999981 1.83917679153e-09 -1.3481366138e-12)
(16999.9999981 1.85846388375e-09 -1.34153213527e-12)
(16999.9999981 1.87738867894e-09 -1.3349905424e-12)
(16999.9999981 1.89596911983e-09 -1.33177231102e-12)
(16999.9999981 1.91500720099e-09 -1.5464298165e-12)
(16999.9999981 1.98463672755e-09 -1.49032321921e-11)
(16999.999998 5.2357519913e-09 -8.1046546013e-10)
(16999.9999941 2.04300346761e-07 -4.38972414901e-08)
(16999.9997438 1.28025739567e-05 -2.55026744037e-06)
(16999.985053 0.000733370622615 -3.84646175162e-05)
(16998.6828265 0.0668745320063 -0.000438284510909)
(16958.668001 1.68032477374 -0.00520972338337)
(16535.5281378 16.9598857291 -0.0127915308898)
(14436.1563762 94.5962503885 -0.00639971661661)
(10609.1811657 237.133517514 0.00205634587311)
(6768.38153709 381.857710274 0.00317467471834)
(3881.81757113 494.757314627 0.00237897488065)
(2132.82815726 569.782834698 0.00158896813052)
(1290.38247229 614.219693339 0.00099440999878)
(979.712592834 639.575900351 0.000643585863825)
(876.855924769 656.777816871 0.000507614632379)
(829.137051432 671.547462213 0.000482807407081)
(793.752172855 685.58201664 0.000490804748138)
(761.330200878 699.245477622 0.000503029876831)
(730.153703066 712.60662983 0.000512677657758)
(699.898485581 725.682332223 0.000518454301994)
(670.471923453 738.483806443 0.000520196016159)
(641.808474864 751.024049344 0.000517894188556)
(613.851428892 763.316462324 0.000511522619721)
(586.563656611 775.373989629 0.000500982381399)
(559.916864952 787.209904585 0.000486138123895)
(533.863918155 798.837796075 0.000466857037927)
(508.377383467 810.267318289 0.000442961260996)
(483.473558974 821.503299472 0.000414189676959)
(459.157845524 832.548614647 0.000380239688039)
(435.394046426 843.4029097 0.000340808638935)
(412.107275839 854.064606197 0.000295623736849)
(389.321284735 864.518212357 0.000244420359675)
(366.86067005 874.754068834 0.000186895616357)
(344.780200105 884.748937904 0.000122762117268)
(323.304303675 894.459106579 5.1831739356e-05)
(302.305466592 903.85662773 -2.59537582236e-05)
(281.686779275 912.90661899 -0.000110456130691)
(261.403966271 921.566055216 -0.000201331580738)
(241.493672327 929.784877193 -0.000298102496905)
(221.973821449 937.512557171 -0.000399970572982)
(202.834171601 944.701647307 -0.000505522642366)
(184.115062628 951.289994767 -0.000613139562051)
(165.82065171 957.228003849 -0.000721223998944)
(147.994025724 962.47122189 -0.000827516860149)
(130.429069043 966.987487789 -0.000929110745017)
(113.117429595 970.746055888 -0.00102315997152)
(96.2088216834 973.71127449 -0.00110700668283)
(79.5670847927 975.873360478 -0.00117684620388)
(71.4026885523 976.982485334 -0.00121000416318)
(16999.9999986 8.69996239435e-10 -6.48931075094e-13)
(16999.9999986 8.84963734367e-10 -6.5294806957e-13)
(16999.9999986 8.99684397294e-10 -6.56998886271e-13)
(16999.9999986 9.14160306368e-10 -6.60945575614e-13)
(16999.9999986 9.28393949529e-10 -6.6504003708e-13)
(16999.9999986 9.42387065683e-10 -6.68382796572e-13)
(16999.9999986 9.56143080617e-10 -6.71584128323e-13)
(16999.9999986 9.69663913563e-10 -6.74974117228e-13)
(16999.9999986 9.82952081959e-10 -6.78172648883e-13)
(16999.9999986 9.96009847652e-10 -6.80550679874e-13)
(16999.9999986 1.00883951038e-09 -6.83236077092e-13)
(16999.9999986 1.02144360817e-09 -6.86003870435e-13)
(16999.9999986 1.03382453328e-09 -6.88041421613e-13)
(16999.9999986 1.04598483931e-09 -6.90489384597e-13)
(16999.9999986 1.05792726866e-09 -6.92754215011e-13)
(16999.9999986 1.06965468426e-09 -6.95629953043e-13)
(16999.9999986 1.08116985376e-09 -6.97727584546e-13)
(16999.9999986 1.0924764502e-09 -6.99526902015e-13)
(16999.9999986 1.10366072018e-09 -7.07025285591e-13)
(16999.9999986 1.11998278895e-09 -1.03094795671e-12)
(16999.9999986 1.47208755781e-09 -1.99532532258e-11)
(16999.9999983 2.29001831904e-08 -1.11528672365e-09)
(16999.9999806 1.34192540766e-06 -5.89227755537e-08)
(16999.9988467 8.56428817265e-05 -3.33082884465e-06)
(16999.9346609 0.00477819637128 -3.74371718857e-05)
(16993.5459097 0.479859327096 -0.000516337907701)
(16893.6695172 6.72182068482 -0.00370913487117)
(16016.8864064 61.1562575318 -0.00553029222596)
(13194.1731732 233.07810992 -0.00119221447881)
(9212.26557985 477.958908075 0.00136283918513)
(5639.27944533 697.670308787 0.00124530958866)
(3160.19104773 851.513198514 0.000870738725312)
(1767.57814255 940.422023806 0.000555461082388)
(1157.70245994 981.908629151 0.000337745034274)
(949.139553751 998.255468824 0.00022939582321)
(874.185495055 1006.07246193 0.000200902820121)
(831.280097153 1011.98055598 0.000206615002387)
(795.746235957 1017.60548643 0.000220909965322)
(762.370708157 1023.31478482 0.000235557600545)
(730.283014339 1029.16224273 0.000248425861061)
(699.321446387 1035.15327029 0.000258843465455)
(669.408021953 1041.28509289 0.000266449294263)
(640.472384847 1047.55264602 0.000270987206059)
(612.446845078 1053.95025088 0.000272249260432)
(585.291958324 1060.46956421 0.000270048855871)
(558.981330404 1067.1003602 0.00026414739878)
(533.46031642 1073.83563023 0.0002543000484)
(508.689469023 1080.6693373 0.000240357598804)
(484.682512597 1087.57588599 0.000222142500616)
(461.436372157 1094.53893821 0.000199401240893)
(438.966590898 1101.53560488 0.000171943511075)
(417.015546354 1108.5614697 0.000139680755587)
(395.48921462 1115.5989837 0.000102548846672)
(374.558077487 1122.60001657 6.04901056713e-05)
(354.200503987 1129.53704418 1.36128811704e-05)
(334.433770728 1136.36719292 -3.78120564542e-05)
(315.207930422 1143.05374492 -9.3531997079e-05)
(296.414968973 1149.56311356 -0.00015317315009)
(278.014797848 1155.85590558 -0.000216073191199)
(260.057029085 1161.87270536 -0.000281453028933)
(242.668328172 1167.55736602 -0.000348506256432)
(225.614592853 1172.88004063 -0.0004162899771)
(208.829070834 1177.80418702 -0.000483699261606)
(192.472581644 1182.27420905 -0.000549466825002)
(176.462264302 1186.25785525 -0.000612305555596)
(160.835339054 1189.71560443 -0.000671017348394)
(145.60188838 1192.62396771 -0.000724396977383)
(130.703744534 1194.96445231 -0.000771278187398)
(116.068442968 1196.73041962 -0.000810351536667)
(108.844980707 1197.62643078 -0.000828942896306)
(16999.9999989 5.47256482013e-10 -2.56976135878e-13)
(16999.9999989 5.56743552456e-10 -2.60210056741e-13)
(16999.9999989 5.66077555777e-10 -2.63314448985e-13)
(16999.9999989 5.75259262309e-10 -2.66409133649e-13)
(16999.9999989 5.84290031831e-10 -2.69512926458e-13)
(16999.9999989 5.93170763494e-10 -2.72854596386e-13)
(16999.9999989 6.01903189604e-10 -2.76076519292e-13)
(16999.9999989 6.10488839346e-10 -2.78769409282e-13)
(16999.9999989 6.18929201213e-10 -2.81515358515e-13)
(16999.9999989 6.27225976245e-10 -2.84546991236e-13)
(16999.9999989 6.35380517336e-10 -2.87138881891e-13)
(16999.9999989 6.43393962314e-10 -2.89706478624e-13)
(16999.9999989 6.5126780195e-10 -2.92161151989e-13)
(16999.9999989 6.59003681957e-10 -2.94517285082e-13)
(16999.9999989 6.66603002641e-10 -2.97003943144e-13)
(16999.9999989 6.74067440606e-10 -2.99139676527e-13)
(16999.9999989 6.81398267222e-10 -3.01456036155e-13)
(16999.9999989 6.88603170339e-10 -3.03747547563e-13)
(16999.9999989 6.96044072519e-10 -3.11950883417e-13)
(16999.9999989 7.25879954613e-10 -6.78593092401e-13)
(16999.9999989 2.13226353847e-09 -2.28105275187e-11)
(16999.999998 8.74324332862e-08 -1.3150938242e-09)
(16999.9999456 5.21120446581e-06 -7.52116827541e-08)
(16999.9966489 0.000325751222307 -2.8567817518e-06)
(16999.8118028 0.0180506503453 -3.13366895353e-05)
(16981.4790742 1.78190676065 -0.000512654428033)
(16786.7664545 18.7748183386 -0.00207973133336)
(15433.2678582 136.571762099 -0.0019407757969)
(12103.2704422 420.357101807 -3.89958515426e-05)
(8128.16753391 758.338820962 0.000615454431011)
(4846.11152171 1035.72018892 0.000491312310931)
(2701.7001599 1215.57996443 0.000329639392853)
(1573.76857074 1308.43806362 0.000203421789044)
(1117.83532329 1342.9556503 0.000123520100106)
(966.953641458 1350.52584805 9.05110265208e-05)
(905.857971074 1350.35163061 8.66660483549e-05)
(864.997209815 1348.79238821 9.34355205754e-05)
(829.123552629 1347.23546634 0.000102555468553)
(795.263997147 1345.95354998 0.00011163632918)
(762.665055174 1345.01722222 0.000119908382993)
(731.250986611 1344.42943823 0.000126947656223)
(700.945280961 1344.19218582 0.000132397475251)
(671.688479589 1344.30408689 0.000135922960373)
(643.434942491 1344.75962083 0.000137210020991)
(616.147643042 1345.55068834 0.000135966911517)
(589.831674208 1346.66305954 0.000131920413848)
(564.541035617 1348.07513395 0.000124811912609)
(540.02119829 1349.79431412 0.000114406305322)
(516.203798447 1351.80784448 0.000100506552696)
(493.237911577 1354.07662066 8.29762324063e-05)
(471.033049891 1356.58410707 6.17127375514e-05)
(449.527427254 1359.30678266 3.6618442509e-05)
(428.62348219 1362.23171242 7.68338108374e-06)
(408.278215706 1365.32843254 -2.49512081658e-05)
(388.520628117 1368.56006084 -6.10390004003e-05)
(369.413100715 1371.87522059 -0.000100301469042)
(350.97603929 1375.23581567 -0.000142418419404)
(333.170056111 1378.60654562 -0.000186951013341)
(315.666199011 1381.97954245 -0.00023332800304)
(298.441594681 1385.31473644 -0.00028087552957)
(281.724419359 1388.54590973 -0.000328859318929)
(265.486727693 1391.63283808 -0.000376544640702)
(249.739801126 1394.5435231 -0.000423158858054)
(234.408836184 1397.2490652 -0.000467858635384)
(219.418653071 1399.72762959 -0.000509783141121)
(204.758157516 1401.94436983 -0.000548146903264)
(190.442227666 1403.87646178 -0.000582270671004)
(176.464752813 1405.50816172 -0.000611553561602)
(162.800509428 1406.83287903 -0.000635394752928)
(156.043092237 1407.50187372 -0.000646778265781)
(16999.9999991 3.68227223001e-10 -1.11456119254e-13)
(16999.9999991 3.74630577367e-10 -1.13297938576e-13)
(16999.9999991 3.80930998139e-10 -1.14896510559e-13)
(16999.9999991 3.87129339923e-10 -1.16271416219e-13)
(16999.9999991 3.93226522979e-10 -1.18015244824e-13)
(16999.9999991 3.99223439477e-10 -1.19508357595e-13)
(16999.9999991 4.05120706139e-10 -1.20334666521e-13)
(16999.9999991 4.10919099599e-10 -1.2177368547e-13)
(16999.9999991 4.1661958577e-10 -1.23493953648e-13)
(16999.9999991 4.22223344945e-10 -1.25040054229e-13)
(16999.9999991 4.27731290362e-10 -1.26733966615e-13)
(16999.9999991 4.33144874604e-10 -1.27991945178e-13)
(16999.9999991 4.38464625024e-10 -1.29646436537e-13)
(16999.9999991 4.43691915882e-10 -1.31013397697e-13)
(16999.9999991 4.48827659614e-10 -1.3195859032e-13)
(16999.9999991 4.53873668371e-10 -1.32991340645e-13)
(16999.9999991 4.5883064005e-10 -1.34602464081e-13)
(16999.9999991 4.63715282817e-10 -1.36097379745e-13)
(16999.9999991 4.69497898515e-10 -1.46408390439e-13)
(16999.9999991 5.35633349019e-10 -6.94141515483e-13)
(16999.9999991 4.36002864787e-09 -3.31170670048e-11)
(16999.9999971 2.44654360479e-07 -1.80422699278e-09)
(16999.9998694 1.56281392518e-05 -1.04769442338e-07)
(16999.9918726 0.000974948800137 -1.96288529777e-06)
(16999.3712203 0.0757145348385 -2.46954370849e-05)
(16967.9454689 3.76249125635 -0.000378661414309)
(16645.9629722 39.8612121248 -0.00109765398115)
(14832.2874691 240.484692736 -0.000672684306287)
(11173.8316134 638.822930465 0.000135425658359)
(7292.42231519 1058.05745594 0.000280498866051)
(4282.79630766 1379.42855776 0.000204573372318)
(2411.58719608 1574.92809332 0.000130060227303)
(1483.22736256 1665.86153835 7.55858605391e-05)
(1131.17344985 1692.08207285 4.47413993402e-05)
(1014.31483899 1691.74319966 3.49354762857e-05)
(960.576497113 1684.69354007 3.62505672286e-05)
(920.72007923 1676.68142395 4.09466225663e-05)
(884.531561183 1668.89203166 4.61814527847e-05)
(850.07220476 1661.52803027 5.11745135549e-05)
(816.954117068 1654.62548305 5.55918114649e-05)
(785.065536547 1648.18881368 5.9177857042e-05)
(754.342497999 1642.21835184 6.16795064683e-05)
(724.713776332 1636.71669098 6.28273164431e-05)
(696.116254426 1631.68435007 6.23424092659e-05)
(668.531043692 1627.11675529 5.99513572939e-05)
(641.939625033 1623.0063589 5.54088112314e-05)
(616.295244935 1619.34501928 4.84848514038e-05)
(591.534505666 1616.12246162 3.89535827863e-05)
(567.625838643 1613.33218847 2.66431144621e-05)
(544.553435213 1610.95385393 1.14456946143e-05)
(522.291425181 1608.96971283 -6.70377548599e-06)
(500.795233048 1607.36626905 -2.78089899882e-05)
(479.960611122 1606.12384972 -5.18203664198e-05)
(459.78099831 1605.22035373 -7.86231523979e-05)
(440.109621675 1604.64366436 -0.000108005570604)
(421.029281779 1604.35260189 -0.000139676037744)
(402.734632375 1604.28899545 -0.000173259968021)
(385.049909657 1604.44005194 -0.000208324624326)
(367.817987075 1604.79050367 -0.00024440845445)
(351.0039048 1605.31873346 -0.000280967043686)
(334.678038891 1605.98392026 -0.000317366625812)
(318.894592914 1606.74184202 -0.000352977205237)
(303.642484938 1607.56661591 -0.000387193240444)
(288.890047338 1608.43371464 -0.000419401365584)
(274.31353831 1609.35746169 -0.000448994199943)
(259.903340584 1610.31763092 -0.000475410409117)
(245.964794818 1611.25756101 -0.000498152579295)
(232.482527829 1612.16516892 -0.000516802928162)
(219.414750092 1613.03663231 -0.000531007244018)
(212.910690671 1613.47995698 -0.000537693027174)
(16999.9999992 2.61622997146e-10 -4.92439149263e-14)
(16999.9999992 2.66178903646e-10 -4.99947508204e-14)
(16999.9999992 2.70662155599e-10 -5.10623473899e-14)
(16999.9999992 2.75072736702e-10 -5.16759747018e-14)
(16999.9999992 2.79411151694e-10 -5.23519239524e-14)
(16999.9999992 2.83678362765e-10 -5.36941872499e-14)
(16999.9999992 2.87875319169e-10 -5.44787854766e-14)
(16999.9999992 2.92002220467e-10 -5.48983661196e-14)
(16999.9999992 2.96059642857e-10 -5.53761654518e-14)
(16999.9999992 3.00048628638e-10 -5.62566715582e-14)
(16999.9999992 3.03969481345e-10 -5.69838346324e-14)
(16999.9999992 3.07822842259e-10 -5.7783052514e-14)
(16999.9999992 3.11609768423e-10 -5.87891833116e-14)
(16999.9999992 3.15330784027e-10 -5.9424618879e-14)
(16999.9999992 3.18986381938e-10 -6.04323953129e-14)
(16999.9999992 3.22577981175e-10 -6.07663390652e-14)
(16999.9999992 3.26107808893e-10 -6.17435470688e-14)
(16999.9999992 3.29624995025e-10 -6.26614881154e-14)
(16999.9999992 3.36220468106e-10 -7.43279900956e-14)
(16999.9999992 5.3882538086e-10 -7.18099604199e-13)
(16999.9999992 1.29422652538e-08 -3.84278206655e-11)
(16999.9999939 7.76184057745e-07 -2.07068921981e-09)
(16999.9996578 4.91794750369e-05 -1.22333271615e-07)
(16999.9801795 0.00284099616138 -1.73029532625e-06)
(16998.183769 0.26174853655 -2.1790886828e-05)
(16952.2416294 6.58820487484 -0.000237889926533)
(16463.5995504 72.1661599098 -0.000521983427014)
(14223.4367144 370.717078528 -0.000214487253681)
(10372.5395527 878.668774039 0.000101024018696)
(6630.97937341 1367.00734953 0.000119074914433)
(3872.19034838 1721.38355752 8.08371595221e-05)
(2229.60231875 1925.05705517 4.79392351116e-05)
(1456.54346286 2010.75705455 2.52573720731e-05)
(1177.95813377 2028.59897367 1.39226902418e-05)
(1082.41587436 2021.39242475 1.15029437103e-05)
(1032.80355931 2008.43491322 1.31641588045e-05)
(993.295198929 1994.81101653 1.58430019709e-05)
(956.738232239 1981.52736922 1.85083110699e-05)
(921.771629227 1968.76467675 2.08416311522e-05)
(888.116310595 1956.55029746 2.26618383359e-05)
(855.678747808 1944.88797684 2.37926369672e-05)
(824.400079979 1933.77776386 2.40414102651e-05)
(794.228506423 1923.22074912 2.31988911931e-05)
(765.142582881 1913.21571483 2.10470899555e-05)
(737.119000081 1903.76129161 1.73689719946e-05)
(710.0973536 1894.85986554 1.19563246524e-05)
(684.034719643 1886.50972881 4.6163215818e-06)
(658.865829845 1878.71030732 -4.81445375835e-06)
(634.527902379 1871.46221826 -1.64569083005e-05)
(611.0274013 1864.7428241 -3.03964004533e-05)
(588.481086005 1858.52321607 -4.66767628117e-05)
(566.664319435 1852.82142078 -6.5278695158e-05)
(545.486950897 1847.63339846 -8.61211505943e-05)
(525.050279243 1842.92553679 -0.000109062776345)
(505.246843456 1838.69163809 -0.00013390081874)
(486.122147042 1834.90911591 -0.0001603578287)
(467.672397986 1831.55484811 -0.000188083953797)
(449.855142718 1828.60279602 -0.000216684064285)
(432.603197927 1826.04184418 -0.000245724405634)
(415.934512929 1823.84797025 -0.000274726362108)
(399.68174246 1822.0241678 -0.000303177275545)
(383.896079143 1820.54083472 -0.000330554335576)
(368.726259536 1819.35318908 -0.000356333118714)
(353.975068929 1818.46888265 -0.000380005347034)
(339.557354259 1817.88270427 -0.000401094264756)
(325.470639291 1817.58926085 -0.00041915976924)
(311.770529056 1817.56741827 -0.000433810342358)
(298.511724766 1817.79016637 -0.000444722527794)
(285.701746945 1818.2462721 -0.000451646641719)
(279.295471711 1818.48289869 -0.000454734960449)
(16999.9999993 1.9432249069e-10 -2.05547388551e-14)
(16999.9999993 1.97711050444e-10 -2.10636245423e-14)
(16999.9999993 2.01045064331e-10 -2.14242472321e-14)
(16999.9999993 2.04325046093e-10 -2.19626179823e-14)
(16999.9999993 2.07551694508e-10 -2.16907661501e-14)
(16999.9999993 2.10725204483e-10 -2.20963722012e-14)
(16999.9999993 2.13845934467e-10 -2.24184400439e-14)
(16999.9999993 2.16914769492e-10 -2.29224981918e-14)
(16999.9999993 2.19932109329e-10 -2.29927109934e-14)
(16999.9999993 2.22898976966e-10 -2.33303661977e-14)
(16999.9999993 2.25814823719e-10 -2.36761442421e-14)
(16999.9999993 2.2868073882e-10 -2.38601543316e-14)
(16999.9999993 2.3149728105e-10 -2.42461310365e-14)
(16999.9999993 2.34264999382e-10 -2.45126777931e-14)
(16999.9999993 2.36983455779e-10 -2.5169778586e-14)
(16999.9999993 2.39653439948e-10 -2.58510598149e-14)
(16999.9999993 2.42278235042e-10 -2.6243838751e-14)
(16999.9999993 2.4498456363e-10 -2.68783428606e-14)
(16999.9999993 2.55573368312e-10 -3.78815466625e-14)
(16999.9999993 7.5589142108e-10 -6.62703082571e-13)
(16999.9999992 3.15616238599e-08 -3.65220519246e-11)
(16999.9999878 1.92536373485e-06 -1.92448551744e-09)
(16999.9992558 0.000124027154675 -1.09848660348e-07)
(16999.9567476 0.00718026579734 -1.35227528578e-06)
(16995.6665652 0.723037608622 -1.72244394008e-05)
(16918.1499742 13.0453950682 -0.000132000191138)
(16198.554011 125.303617052 -0.000202029927151)
(13587.7155009 530.108954122 -4.96554188066e-05)
(9671.79303255 1135.12886894 4.09010857027e-05)
(6093.45194571 1681.43739197 3.46184031029e-05)
(3565.48396194 2059.69095819 2.07495479154e-05)
(2119.52413273 2265.74690566 1.03478215984e-05)
(1473.10998589 2343.74373682 3.97160343124e-06)
(1248.38072572 2353.47732926 1.48713638785e-06)
(1167.11604034 2340.18836785 1.610321293e-06)
(1120.02470661 2322.00024333 2.70424671243e-06)
(1080.46163303 2303.37556941 3.90296489947e-06)
(1043.34611121 2285.17282035 4.90151075459e-06)
(1007.7287418 2267.55201114 5.5509109086e-06)
(973.405983861 2250.54331434 5.72054251644e-06)
(940.298291841 2234.15417888 5.26903959377e-06)
(908.352492427 2218.38758217 4.04114575189e-06)
(877.551564084 2203.2407847 1.87078132153e-06)
(847.868870327 2188.71481656 -1.41367176013e-06)
(819.264193846 2174.81147838 -5.98237109903e-06)
(791.695073845 2161.53828006 -1.19968005338e-05)
(765.093120176 2148.89369681 -1.96031651064e-05)
(739.452423411 2136.87614251 -2.89237301317e-05)
(714.5601369 2125.51663965 -4.0048042711e-05)
(690.418701687 2114.80744961 -5.30290035998e-05)
(667.25023177 2104.70306302 -6.7874536257e-05)
(644.967523841 2095.20598786 -8.45395174794e-05)
(623.475506339 2086.33039224 -0.000102926141976)
(602.70548229 2078.0781296 -0.00012288462696)
(582.627395017 2070.43548336 -0.000144204808015)
(563.321500006 2063.38053083 -0.000166617618449)
(544.579012754 2056.93608265 -0.000189803735764)
(526.350254159 2051.09679717 -0.000213402783317)
(508.790259447 2045.82273467 -0.000237014836075)
(491.824132917 2041.11400987 -0.00026020753779)
(475.445540348 2036.96077192 -0.000282526505128)
(459.610710435 2033.35784805 -0.000303513030321)
(444.254497328 2030.30367798 -0.00032271820581)
(429.388542149 2027.78513169 -0.000339709180288)
(415.089491082 2025.77958492 -0.000354074298206)
(401.36829452 2024.27728898 -0.00036543584512)
(387.926245125 2023.32105188 -0.000373467151068)
(374.728639805 2022.90784532 -0.000377906101987)
(361.971341174 2022.99389954 -0.000378560163648)
(355.56639454 2023.05228365 -0.000378543308249)
(16999.9999994 1.49688453424e-10 -7.24761939602e-15)
(16999.9999994 1.5230277898e-10 -7.35333273391e-15)
(16999.9999994 1.5487479659e-10 -7.59150248717e-15)
(16999.9999994 1.57404907077e-10 -7.79388817815e-15)
(16999.9999994 1.59893908705e-10 -7.87363189895e-15)
(16999.9999994 1.6234165022e-10 -8.09270403396e-15)
(16999.9999994 1.64749028772e-10 -8.1196763238e-15)
(16999.9999994 1.6711577445e-10 -8.51080942962e-15)
(16999.9999994 1.694424193e-10 -8.73086735516e-15)
(16999.9999994 1.71729710067e-10 -9.17078272368e-15)
(16999.9999994 1.73978032425e-10 -9.32667605747e-15)
(16999.9999994 1.76187934951e-10 -9.29887111807e-15)
(16999.9999994 1.7835939173e-10 -9.4553402529e-15)
(16999.9999994 1.80493488767e-10 -9.67327840712e-15)
(16999.9999994 1.8258918153e-10 -1.0049613347e-14)
(16999.9999994 1.84647075555e-10 -1.01283299803e-14)
(16999.9999994 1.86674209836e-10 -1.03992106796e-14)
(16999.9999994 1.88980829595e-10 -1.11008571686e-14)
(16999.9999994 2.10998308359e-10 -1.55427108382e-14)
(16999.9999994 1.45625540301e-09 -2.2720023406e-13)
(16999.999999 7.82314667709e-08 -1.05899588202e-11)
(16999.9999744 4.76539432797e-06 -4.64582621576e-10)
(16999.9983997 0.000303878079948 -2.15783288049e-08)
(16999.908871 0.0172275031101 -1.61765819977e-07)
(16990.8955487 1.72782200446 -1.1706174322e-06)
(16868.25406 23.9387972089 -1.6864283107e-06)