/*--------------------------------*- C++ -*----------------------------------*\
| =========                 |                                                 |
| \\      /  F ield         | foam-extend: Open Source CFD                    |
|  \\    /   O peration     | Version:     4.1                                |
|   \\  /    A nd           | Web:         http://www.foam-extend.org         |
|    \\/     M anipulation  |                                                 |
\*---------------------------------------------------------------------------*/
FoamFile
{
    version     2.0;
    format      ascii;
    class       volScalarField;
    location    "0.0003";
    object      eMoins;
}
// * * * * * * * * * * * * * * * * * * * * * * * * * * * * * * * * * * * * * //

dimensions      [0 0 0 0 0 0 0];

internalField   nonuniform List<scalar> 
8400
(
9.91207425414e-163
9.91207425421e-163
9.91207425427e-163
9.91207425433e-163
9.91207425439e-163
9.91207425445e-163
9.91207425451e-163
9.91207425457e-163
9.91207425462e-163
9.91207425468e-163
9.91207425473e-163
9.91207425479e-163
9.91207425484e-163
9.91207425489e-163
9.91207425494e-163
9.91207425499e-163
9.91207425504e-163
9.91207425509e-163
9.91207425514e-163
9.91207425518e-163
9.91207425523e-163
9.91207425527e-163
9.91207425532e-163
9.91207425539e-163
9.91207425715e-163
9.9120743667e-163
9.91208130103e-163
9.91249603225e-163
9.93800852071e-163
1.03383214338e-162
2.47558797069e-29
3.06302080011e-09
2.50325200248e-06
1.43584398583e-05
2.19382266353e-05
2.54675774451e-05
2.68479702079e-05
2.73697010152e-05
2.75492163232e-05
2.76257077231e-05
2.7679015284e-05
2.7728135472e-05
2.77771038038e-05
2.78270911211e-05
2.78779970044e-05
2.79304642667e-05
2.79816577905e-05
2.80380587966e-05
2.80964455172e-05
2.81571030659e-05
2.82202346272e-05
2.82856347566e-05
2.83500717425e-05
2.84196189884e-05
2.84909167516e-05
2.85637112894e-05
2.86370252946e-05
2.87104551688e-05
2.87800267174e-05
2.88512394681e-05
2.89204118705e-05
2.89861269705e-05
2.90477825897e-05
2.91043908918e-05
2.91550509222e-05
2.91984583521e-05
2.9234187474e-05
2.92583211558e-05
2.9277078093e-05
2.93024494902e-05
9.91207424172e-163
9.91207424174e-163
9.91207424177e-163
9.91207424179e-163
9.91207424182e-163
9.91207424184e-163
9.91207424186e-163
9.91207424189e-163
9.91207424191e-163
9.91207424193e-163
9.91207424196e-163
9.91207424198e-163
9.912074242e-163
9.91207424202e-163
9.91207424204e-163
9.91207424206e-163
9.91207424208e-163
9.9120742421e-163
9.91207424212e-163
9.91207424214e-163
9.91207424216e-163
9.91207424218e-163
9.9120742422e-163
9.91207424236e-163
9.91207425126e-163
9.91207482905e-163
9.91211186857e-163
9.91444322072e-163
1.00052110099e-162
2.96989508537e-63
3.7231827963e-13
1.49547133988e-08
8.19416544738e-06
1.85825774655e-05
2.4116082228e-05
2.64738318333e-05
2.73726445377e-05
2.76714624541e-05
2.77710839899e-05
2.78224051496e-05
2.78672545353e-05
2.7912525896e-05
2.79593689433e-05
2.80085913662e-05
2.80602067801e-05
2.81141006836e-05
2.817057197e-05
2.82297554751e-05
2.82915337168e-05
2.83555480793e-05
2.84222167966e-05
2.84908498379e-05
2.85613934457e-05
2.86338209217e-05
2.87041226513e-05
2.87783477016e-05
2.88524265087e-05
2.89259559726e-05
2.89979758348e-05
2.90678577455e-05
2.91349962608e-05
2.91984847349e-05
2.92574153629e-05
2.93078642875e-05
2.9355221348e-05
2.9395669125e-05
2.94288814104e-05
2.94542930582e-05
2.94715790021e-05
2.94892329683e-05
9.91207423722e-163
9.91207423723e-163
9.91207423725e-163
9.91207423726e-163
9.91207423728e-163
9.91207423729e-163
9.91207423731e-163
9.91207423732e-163
9.91207423733e-163
9.91207423735e-163
9.91207423736e-163
9.91207423737e-163
9.91207423739e-163
9.9120742374e-163
9.91207423741e-163
9.91207423742e-163
9.91207423744e-163
9.91207423745e-163
9.91207423746e-163
9.91207423747e-163
9.91207423748e-163
9.91207423749e-163
9.91207423752e-163
9.91207423842e-163
9.91207429602e-163
9.91207802991e-163
9.91230813701e-163
9.92683961383e-163
1.01964650038e-162
2.03087763653e-39
1.32476476212e-09
1.07256977351e-06
1.32184565448e-05
2.15332564038e-05
2.54665128634e-05
2.70436899364e-05
2.76095993576e-05
2.77874056236e-05
2.78565304443e-05
2.79006142929e-05
2.79423936455e-05
2.79858849511e-05
2.80318006798e-05
2.80801447837e-05
2.81310202146e-05
2.8184596602e-05
2.82410592358e-05
2.83000931132e-05
2.83615983585e-05
2.84257914013e-05
2.84921121856e-05
2.85605218064e-05
2.86308705114e-05
2.87023122396e-05
2.8774736868e-05
2.88442118844e-05
2.89165978103e-05
2.89878458555e-05
2.90573381365e-05
2.91244836875e-05
2.91884692575e-05
2.9248461773e-05
2.93039001161e-05
2.93543365677e-05
2.9395511005e-05
2.94334804481e-05
2.94642815035e-05
2.94875428513e-05
2.95032264958e-05
2.95182542224e-05
9.91207423502e-163
9.91207423503e-163
9.91207423504e-163
9.91207423505e-163
9.91207423506e-163
9.91207423507e-163
9.91207423508e-163
9.91207423509e-163
9.9120742351e-163
9.91207423511e-163
9.91207423512e-163
9.91207423513e-163
9.91207423514e-163
9.91207423515e-163
9.91207423516e-163
9.91207423516e-163
9.91207423517e-163
9.91207423518e-163
9.91207423519e-163
9.9120742352e-163
9.91207423521e-163
9.91207423522e-163
9.91207423528e-163
9.91207423881e-163
9.9120744607e-163
9.91208835162e-163
9.91290787621e-163
9.9621507981e-163
1.06136551487e-162
3.27295575602e-16
6.30322625111e-09
4.99896475815e-06
1.65026365595e-05
2.31875357937e-05
2.61384885519e-05
2.72857156882e-05
2.76706560933e-05
2.77949431777e-05
2.78493775843e-05
2.78931216709e-05
2.79367655799e-05
2.79824649884e-05
2.8030722289e-05
2.80813735517e-05
2.81345197145e-05
2.81902715088e-05
2.82488481639e-05
2.83097562123e-05
2.83730281118e-05
2.84387344219e-05
2.85063403302e-05
2.85757470153e-05
2.86468793077e-05
2.87155850484e-05
2.87880940865e-05
2.88603001004e-05
2.89320582447e-05
2.90023700082e-05
2.90707670387e-05
2.9136594688e-05
2.91990629195e-05
2.92542772978e-05
2.93079409542e-05
2.93563117909e-05
2.93988921541e-05
2.94352445096e-05
2.94647152629e-05
2.94869135808e-05
2.95017967543e-05
2.95155504633e-05
9.91207423376e-163
9.91207423377e-163
9.91207423378e-163
9.91207423379e-163
9.9120742338e-163
9.9120742338e-163
9.91207423381e-163
9.91207423382e-163
9.91207423383e-163
9.91207423383e-163
9.91207423384e-163
9.91207423385e-163
9.91207423386e-163
9.91207423386e-163
9.91207423387e-163
9.91207423388e-163
9.91207423388e-163
9.91207423389e-163
9.9120742339e-163
9.9120742339e-163
9.91207423391e-163
9.91207423392e-163
9.91207423406e-163
9.91207424255e-163
9.91207479619e-163
9.9121105555e-163
9.91437637083e-163
1.00047636742e-162
2.94457077449e-63
3.67370829223e-13
1.49791715108e-08
8.20720407299e-06
1.8592959359e-05
2.41124444918e-05
2.64532186521e-05
2.73347961108e-05
2.76287161693e-05
2.77273575137e-05
2.77806991947e-05
2.78276975823e-05
2.78755323646e-05
2.79253322813e-05
2.79773151428e-05
2.8031880147e-05
2.80888009541e-05
2.81481002972e-05
2.82098508803e-05
2.82741775666e-05
2.83403748911e-05
2.84088140097e-05
2.84790518699e-05
2.85477321204e-05
2.86206489432e-05
2.86940587968e-05
2.8767766151e-05
2.88410812277e-05
2.89134131629e-05
2.89842414492e-05
2.90528871367e-05
2.91156215063e-05
2.91777720263e-05
2.92358328788e-05
2.92889460884e-05
2.93366567205e-05
2.93784984195e-05
2.94140463481e-05
2.94429398572e-05
2.94648182975e-05
2.94795727436e-05
2.94929040782e-05
9.91207423297e-163
9.91207423297e-163
9.91207423298e-163
9.91207423299e-163
9.91207423299e-163
9.912074233e-163
9.91207423301e-163
9.91207423301e-163
9.91207423302e-163
9.91207423302e-163
9.91207423303e-163
9.91207423304e-163
9.91207423304e-163
9.91207423305e-163
9.91207423305e-163
9.91207423306e-163
9.91207423306e-163
9.91207423307e-163
9.91207423308e-163
9.91207423308e-163
9.91207423309e-163
9.9120742331e-163
9.91207423345e-163
9.91207425605e-163
9.91207571287e-163
9.91216520812e-163
9.91773092369e-163
1.00563578293e-162
8.7520023471e-63
8.54892312344e-12
4.74002590713e-08
1.06464366898e-05
1.99807412375e-05
2.464837617e-05
2.65750021157e-05
2.72849875342e-05
2.75193191342e-05
2.76075658233e-05
2.76649989286e-05
2.77178628146e-05
2.77712319385e-05
2.78262237152e-05
2.78834948095e-05
2.79428147867e-05
2.80043238466e-05
2.8068148816e-05
2.81339876246e-05
2.82019116577e-05
2.82721981035e-05
2.8340902506e-05
2.84145176469e-05
2.84892033486e-05
2.85647395059e-05
2.86406030377e-05
2.87162722243e-05
2.8791616486e-05
2.8862540744e-05
2.89346621345e-05
2.90043885691e-05
2.9070980641e-05
2.91337463323e-05
2.91921902787e-05
2.92458764686e-05
2.92938657309e-05
2.93358246325e-05
2.93680718824e-05
2.93969844679e-05
2.94188751439e-05
2.9433669159e-05
2.94469202582e-05
9.91207423242e-163
9.91207423243e-163
9.91207423243e-163
9.91207423244e-163
9.91207423244e-163
9.91207423245e-163
9.91207423245e-163
9.91207423246e-163
9.91207423246e-163
9.91207423247e-163
9.91207423247e-163
9.91207423248e-163
9.91207423248e-163
9.91207423249e-163
9.91207423249e-163
9.9120742325e-163
9.9120742325e-163
9.91207423251e-163
9.91207423251e-163
9.91207423252e-163
9.91207423252e-163
9.91207423254e-163
9.91207423326e-163
9.91207427909e-163
9.91207722185e-163
9.91225830779e-163
9.92382863086e-163
1.01568346391e-162
1.06738313009e-39
8.04105859149e-10
5.99896328494e-07
1.24722138666e-05
2.09130788105e-05
2.49495287713e-05
2.6576396496e-05
2.71714468785e-05
2.7368558194e-05
2.74542506731e-05
2.75153741841e-05
2.75737454893e-05
2.76329854325e-05
2.76939760574e-05
2.77565288216e-05
2.78210106011e-05
2.78877191097e-05
2.79564395836e-05
2.8027214543e-05
2.80966329375e-05
2.81709280396e-05
2.82468162812e-05
2.83238444314e-05
2.84019252249e-05
2.84806432748e-05
2.85595716917e-05
2.86349009718e-05
2.87126125582e-05
2.87887573374e-05
2.88627785379e-05
2.89340018234e-05
2.90020125928e-05
2.90661924493e-05
2.91223496515e-05
2.91769280352e-05
2.92255974096e-05
2.92680311986e-05
2.93039337223e-05
2.93330259796e-05
2.93551255906e-05
2.93700749078e-05
2.93831801052e-05
9.91207423202e-163
9.91207423203e-163
9.91207423203e-163
9.91207423204e-163
9.91207423204e-163
9.91207423205e-163
9.91207423205e-163
9.91207423206e-163
9.91207423206e-163
9.91207423207e-163
9.91207423207e-163
9.91207423208e-163
9.91207423208e-163
9.91207423208e-163
9.91207423209e-163
9.91207423209e-163
9.9120742321e-163
9.9120742321e-163
9.9120742321e-163
9.91207423211e-163
9.91207423211e-163
9.91207423214e-163
9.91207423352e-163
9.91207432295e-163
9.9120800785e-163
9.91242946795e-163
9.93422171543e-163
1.02974819903e-162
1.36740841059e-29
2.59337754648e-09
2.02876414177e-06
1.39306455247e-05
2.15605200293e-05
2.51090436962e-05
2.65030180437e-05
2.70118879841e-05
2.71851989256e-05
2.72695784587e-05
2.73353212448e-05
2.73997451975e-05
2.74651337962e-05
2.75322186473e-05
2.76007300603e-05
2.76711556531e-05
2.77400565286e-05
2.78141102746e-05
2.78899192147e-05
2.79672902674e-05
2.80463088977e-05
2.81264525143e-05
2.82077170379e-05
2.8289683426e-05
2.83687644251e-05
2.84511198431e-05
2.85325914219e-05
2.86128696463e-05
2.86916865143e-05
2.87679129931e-05
2.88413355687e-05
2.89076839751e-05
2.89735152609e-05
2.90342055575e-05
2.90895580147e-05
2.91391556018e-05
2.91826011934e-05
2.92193158813e-05
2.92489418344e-05
2.92713607492e-05
2.92864452047e-05
2.92993680734e-05
9.91207423172e-163
9.91207423173e-163
9.91207423173e-163
9.91207423174e-163
9.91207423174e-163
9.91207423174e-163
9.91207423175e-163
9.91207423175e-163
9.91207423176e-163
9.91207423176e-163
9.91207423176e-163
9.91207423177e-163
9.91207423177e-163
9.91207423178e-163
9.91207423178e-163
9.91207423178e-163
9.91207423179e-163
9.91207423179e-163
9.91207423179e-163
9.9120742318e-163
9.9120742318e-163
9.91207423184e-163
9.9120742343e-163
9.91207439131e-163
9.91208437378e-163
9.91268285425e-163
9.94926494721e-163
1.04745813258e-162
2.30096778982e-18
4.5488966308e-09
3.56393821182e-06
1.5068810799e-05
2.2013099538e-05
2.51452526815e-05
2.63688636573e-05
2.68187085327e-05
2.69747076122e-05
2.70572687776e-05
2.71280296958e-05
2.71986787083e-05
2.7270607093e-05
2.73441204058e-05
2.74157254064e-05
2.7492219542e-05
2.75701051666e-05
2.76498397829e-05
2.77308826781e-05
2.78135347539e-05
2.78975215145e-05
2.798246612e-05
2.80653925599e-05
2.81514520056e-05
2.82377023997e-05
2.83232938723e-05
2.84080431689e-05
2.84916103827e-05
2.85699458265e-05
2.86487941249e-05
2.87244199093e-05
2.8796185407e-05
2.88633404314e-05
2.89255366131e-05
2.89824952647e-05
2.90299438745e-05
2.90743321109e-05
2.91118649351e-05
2.9142257966e-05
2.91651499179e-05
2.91806067359e-05
2.91936239512e-05
9.91207423149e-163
9.91207423149e-163
9.9120742315e-163
9.9120742315e-163
9.9120742315e-163
9.91207423151e-163
9.91207423151e-163
9.91207423151e-163
9.91207423152e-163
9.91207423152e-163
9.91207423152e-163
9.91207423153e-163
9.91207423153e-163
9.91207423153e-163
9.91207423154e-163
9.91207423154e-163
9.91207423154e-163
9.91207423155e-163
9.91207423155e-163
9.91207423155e-163
9.91207423156e-163
9.91207423162e-163
9.91207423568e-163
9.91207449071e-163
9.91209040578e-163
9.91302635867e-163
9.96864048922e-163
1.06930386482e-162
2.24678434656e-15
6.87374913274e-09
5.02673642193e-06
1.59929022781e-05
2.22976083751e-05
2.51066592268e-05
2.6200101492e-05
2.65813303285e-05
2.6730761173e-05
2.68176216406e-05
2.68950742757e-05
2.69724138481e-05
2.70512172056e-05
2.71282605134e-05
2.7209752672e-05
2.72925428264e-05
2.73765389391e-05
2.7462254829e-05
2.75491357475e-05
2.76374855567e-05
2.77234082322e-05
2.78134929834e-05
2.7904066404e-05
2.79948996677e-05
2.80853938019e-05
2.81750274392e-05
2.82603009384e-05
2.83472332311e-05
2.84315791734e-05
2.85132106412e-05
2.85913048546e-05
2.86651594009e-05
2.87312565562e-05
2.87953212277e-05
2.8853575559e-05
2.89057515143e-05
2.89511495773e-05
2.89894361261e-05
2.90203983743e-05
2.90438429511e-05
2.90596660134e-05
2.90727637394e-05
9.9120742313e-163
9.9120742313e-163
9.9120742313e-163
9.91207423131e-163
9.91207423131e-163
9.91207423131e-163
9.91207423132e-163
9.91207423132e-163
9.91207423132e-163
9.91207423133e-163
9.91207423133e-163
9.91207423133e-163
9.91207423134e-163
9.91207423134e-163
9.91207423134e-163
9.91207423135e-163
9.91207423135e-163
9.91207423135e-163
9.91207423136e-163
9.91207423136e-163
9.91207423136e-163
9.91207423147e-163
9.91207423773e-163
9.91207462308e-163
9.91209807846e-163
9.91347489265e-163
9.99009286937e-163
1.10133065714e-63
6.43857993378e-14
1.01470101776e-08
6.39010569349e-06
1.68078336622e-05
2.25060369291e-05
2.4992709231e-05
2.59633643586e-05
2.63118738606e-05
2.64581445116e-05
2.65508894725e-05
2.6636394958e-05
2.67186107396e-05
2.68048464495e-05
2.68924306665e-05
2.69806855311e-05
2.70702055e-05
2.71609540527e-05
2.72530292178e-05
2.73428503592e-05
2.74370960991e-05
2.75317279029e-05
2.76270406998e-05
2.77225982583e-05
2.78148759508e-05
2.79099699084e-05
2.80037811574e-05
2.80963459611e-05
2.81867004936e-05
2.82745174284e-05
2.83558029034e-05
2.84365296499e-05
2.85129889662e-05
2.85842671629e-05
2.86501015529e-05
2.87102829563e-05
2.87602927107e-05
2.8807096857e-05
2.88464263452e-05
2.88782370032e-05
2.89023326232e-05
2.89186022314e-05
2.89318327675e-05
9.91207423114e-163
9.91207423114e-163
9.91207423115e-163
9.91207423115e-163
9.91207423115e-163
9.91207423116e-163
9.91207423116e-163
9.91207423116e-163
9.91207423117e-163
9.91207423117e-163
9.91207423117e-163
9.91207423118e-163
9.91207423118e-163
9.91207423118e-163
9.91207423118e-163
9.91207423119e-163
9.91207423119e-163
9.91207423119e-163
9.91207423119e-163
9.9120742312e-163
9.9120742312e-163
9.91207423136e-163
9.91207424122e-163
9.91207488413e-163
9.91211621427e-163
9.91472238785e-163
1.00132922234e-162
3.48087998041e-63
5.0112993759e-13
1.52371304668e-08
7.7019698762e-06
1.74680787249e-05
2.26401556735e-05
2.48279514428e-05
2.56986015703e-05
2.60157282785e-05
2.61547676089e-05
2.62588204474e-05
2.63500919124e-05
2.64435899013e-05
2.65380268999e-05
2.66332401494e-05
2.67293173078e-05
2.68263772955e-05
2.69213276384e-05
2.70202234197e-05
2.71196660739e-05
2.72196555337e-05
2.73203765034e-05
2.74179496717e-05
2.75190301302e-05
2.76192970346e-05
2.77188538403e-05
2.78170696502e-05
2.79103799721e-05
2.80047250093e-05
2.80960908026e-05
2.81837718398e-05
2.82677992612e-05
2.83434549977e-05
2.84172003802e-05
2.84852763369e-05
2.85470237112e-05
2.86020149379e-05
2.86499270407e-05
2.86903396853e-05
2.87229856081e-05
2.87477192886e-05
2.87644826312e-05
2.87778162051e-05
9.91207423101e-163
9.91207423101e-163
9.91207423102e-163
9.91207423102e-163
9.91207423102e-163
9.91207423102e-163
9.91207423103e-163
9.91207423103e-163
9.91207423103e-163
9.91207423104e-163
9.91207423104e-163
9.91207423104e-163
9.91207423104e-163
9.91207423105e-163
9.91207423105e-163
9.91207423105e-163
9.91207423105e-163
9.91207423106e-163
9.91207423106e-163
9.91207423106e-163
9.91207423107e-163
9.91207423135e-163
9.91207424957e-163
9.91207543385e-163
9.9121489439e-163
9.91670058042e-163
1.00443032848e-162
6.86442843858e-63
2.90263448415e-12
2.63844511074e-08
8.93726745751e-06
1.80168617968e-05
2.26829521405e-05
2.46280193246e-05
2.53978834574e-05
2.56888660964e-05
2.5828462729e-05
2.59382567432e-05
2.60422008491e-05
2.6145574898e-05
2.62487181718e-05
2.63524375575e-05
2.64536164835e-05
2.6558599521e-05
2.66640827633e-05
2.67700200568e-05
2.68765786077e-05
2.69802369813e-05
2.70872500367e-05
2.71937321135e-05
2.73001862223e-05
2.74056137668e-05
2.75067691157e-05
2.76098037905e-05
2.77104130376e-05
2.78086393568e-05
2.79002514623e-05
2.79913668016e-05
2.80783824962e-05
2.81602376314e-05
2.82366260022e-05
2.83072517126e-05
2.83676671456e-05
2.84244463953e-05
2.8473733315e-05
2.85153252785e-05
2.854899693e-05
2.85745230036e-05
2.85917757772e-05
2.86051942929e-05
9.9120742309e-163
9.9120742309e-163
9.9120742309e-163
9.91207423091e-163
9.91207423091e-163
9.91207423091e-163
9.91207423092e-163
9.91207423092e-163
9.91207423092e-163
9.91207423092e-163
9.91207423093e-163
9.91207423093e-163
9.91207423093e-163
9.91207423093e-163
9.91207423094e-163
9.91207423094e-163
9.91207423094e-163
9.91207423094e-163
9.91207423094e-163
9.91207423095e-163
9.91207423096e-163
9.91207423146e-163
9.91207426365e-163
9.91207631216e-163
9.91220030549e-163
9.91980312769e-163
1.00915292669e-162
1.17438901576e-62
4.31598827292e-11
6.32004645967e-08
1.01289364372e-05
1.8470672292e-05
2.26647594241e-05
2.43926352542e-05
2.50694392841e-05
2.53365302569e-05
2.54791810335e-05
2.55985677836e-05
2.57128919193e-05
2.58258517919e-05
2.59386499667e-05
2.60482282587e-05
2.61609905607e-05
2.62740449493e-05
2.63872218027e-05
2.6497742677e-05
2.66116283707e-05
2.67250776581e-05
2.68386105122e-05
2.69483651572e-05
2.70606300933e-05
2.71718777898e-05
2.72812189142e-05
2.73890208449e-05
2.7490708449e-05
2.75930727897e-05
2.76915735422e-05
2.77864236531e-05
2.78730056929e-05
2.79579257965e-05
2.80370263357e-05
2.81098123476e-05
2.81755636495e-05
2.82340380552e-05
2.82849787835e-05
2.83245857047e-05
2.8359364936e-05
2.83856662853e-05
2.84034655142e-05
2.84170044117e-05
9.9120742308e-163
9.91207423081e-163
9.91207423081e-163
9.91207423081e-163
9.91207423081e-163
9.91207423082e-163
9.91207423082e-163
9.91207423082e-163
9.91207423082e-163
9.91207423083e-163
9.91207423083e-163
9.91207423083e-163
9.91207423083e-163
9.91207423084e-163
9.91207423084e-163
9.91207423084e-163
9.91207423084e-163
9.91207423084e-163
9.91207423085e-163
9.91207423085e-163
9.91207423086e-163
9.91207423175e-163
9.91207428762e-163
9.91207782772e-163
9.91229271876e-163
9.92572811168e-163
1.01873969465e-162
1.49645349753e-39
9.47191534797e-10
4.33572679648e-07
1.12345475509e-05
1.8894256095e-05
2.25667406931e-05
2.41076306692e-05
2.47129381568e-05
2.49596247393e-05
2.51078978328e-05
2.52367358759e-05
2.53616846708e-05
2.54821272064e-05
2.56050741261e-05
2.57273442775e-05
2.58492885719e-05
2.59679122029e-05
2.60893754567e-05
2.62108660758e-05
2.63318718661e-05
2.64494975955e-05
2.65696031883e-05
2.66890676929e-05
2.68071775276e-05
2.69206852137e-05
2.70360112159e-05
2.71486580006e-05
2.72587666623e-05
2.73616129551e-05
2.74640723379e-05
2.75624869891e-05
2.76559190781e-05
2.77439400739e-05
2.78221942185e-05
2.78971707094e-05
2.79651748107e-05
2.80255039667e-05
2.80780447387e-05
2.81223640004e-05
2.81581161587e-05
2.818524828e-05
2.81999564558e-05
2.82137339856e-05
9.91207423072e-163
9.91207423072e-163
9.91207423073e-163
9.91207423073e-163
9.91207423073e-163
9.91207423073e-163
9.91207423074e-163
9.91207423074e-163
9.91207423074e-163
9.91207423074e-163
9.91207423074e-163
9.91207423075e-163
9.91207423075e-163
9.91207423075e-163
9.91207423075e-163
9.91207423076e-163
9.91207423076e-163
9.91207423076e-163
9.91207423076e-163
9.91207423076e-163
9.91207423079e-163
9.9120742324e-163
9.91207433494e-163
9.91208083443e-163
9.91247076134e-163
9.93640376296e-163
1.03348228814e-162
1.77663186977e-29
2.61799076084e-09
1.58717680107e-06
1.23114073066e-05
1.92129124804e-05
2.24566938502e-05
2.379902636e-05
2.43264500826e-05
2.45591454394e-05
2.47142834748e-05
2.48545798295e-05
2.49876178544e-05
2.51221322392e-05
2.5255253122e-05
2.53875215117e-05
2.55159787581e-05
2.56468656304e-05
2.57774039057e-05
2.5903850727e-05
2.60327374674e-05
2.61607827239e-05
2.62877596233e-05
2.64103645284e-05
2.65349436092e-05
2.66574978429e-05
2.67746239926e-05
2.68923902868e-05
2.70071863853e-05
2.71183192359e-05
2.72215320934e-05
2.73238593e-05
2.74207309957e-05
2.75117095947e-05
2.75963001494e-05
2.76703420147e-05
2.77404711713e-05
2.78026562341e-05
2.78567379549e-05
2.79023554662e-05
2.79393451461e-05
2.79673962199e-05
2.79864056324e-05
2.80001859913e-05
9.91207423065e-163
9.91207423065e-163
9.91207423065e-163
9.91207423066e-163
9.91207423066e-163
9.91207423066e-163
9.91207423066e-163
9.91207423066e-163
9.91207423067e-163
9.91207423067e-163
9.91207423067e-163
9.91207423067e-163
9.91207423068e-163
9.91207423068e-163
9.91207423068e-163
9.91207423068e-163
9.91207423068e-163
9.91207423068e-163
9.91207423069e-163
9.91207423069e-163
9.91207423074e-163
9.91207423378e-163
9.91207442552e-163
9.91208646283e-163
9.91279912393e-163
9.95542304638e-163
1.05583234932e-162
6.98111294889e-18
4.67625534093e-09
3.00468090679e-06
1.32797219447e-05
1.94360951971e-05
2.22817821345e-05
2.34530427325e-05
2.39184947253e-05
2.41411011918e-05
2.43031053155e-05
2.44508333956e-05
2.45983167876e-05
2.47437292437e-05
2.48845364986e-05
2.50268749999e-05
2.51683367732e-05
2.53056063531e-05
2.54447247519e-05
2.55830726771e-05
2.57202807974e-05
2.58529746072e-05
2.59873870984e-05
2.61202298218e-05
2.62476489017e-05
2.63762153032e-05
2.65023061152e-05
2.66216760745e-05
2.67413926436e-05
2.68569941036e-05
2.69678823979e-05
2.70703229616e-05
2.71706743765e-05
2.72649926618e-05
2.73526109778e-05
2.743294452e-05
2.75016533042e-05
2.75659856049e-05
2.76217738175e-05
2.76688531378e-05
2.77069073095e-05
2.77357435008e-05
2.77553994558e-05
2.77694818775e-05
9.91207423058e-163
9.91207423059e-163
9.91207423059e-163
9.91207423059e-163
9.91207423059e-163
9.9120742306e-163
9.9120742306e-163
9.9120742306e-163
9.9120742306e-163
9.9120742306e-163
9.91207423061e-163
9.91207423061e-163
9.91207423061e-163
9.91207423061e-163
9.91207423061e-163
9.91207423062e-163
9.91207423062e-163
9.91207423062e-163
9.91207423062e-163
9.91207423062e-163
9.91207423072e-163
9.91207423648e-163
9.91207459158e-163
9.91209625205e-163
9.91334131203e-163
9.98436039553e-163
2.12184902609e-64
1.40356279166e-14
7.67839866297e-09
4.52780717485e-06
1.41510664962e-05
1.96035768808e-05
2.20409068811e-05
2.30651371522e-05
2.34855947107e-05
2.37020697002e-05
2.38697832871e-05
2.40317998871e-05
2.41911250868e-05
2.43451376762e-05
2.45003443452e-05
2.46537092495e-05
2.48020835608e-05
2.49518889845e-05
2.51005040236e-05
2.52441764191e-05
2.53894593362e-05
2.55333143932e-05
2.56717600451e-05
2.58115409491e-05
2.59493878388e-05
2.60807549518e-05
2.62126872349e-05
2.63409357354e-05
2.64617830631e-05
2.65818475241e-05
2.66971012391e-05
2.68068406649e-05
2.69070436401e-05
2.70045981666e-05
2.70948859219e-05
2.71776395479e-05
2.72524688081e-05
2.73151808169e-05
2.73727296596e-05
2.74211704557e-05
2.74604079099e-05
2.74903001526e-05
2.75106429274e-05
2.75249218408e-05
9.91207423053e-163
9.91207423053e-163
9.91207423053e-163
9.91207423053e-163
9.91207423054e-163
9.91207423054e-163
9.91207423054e-163
9.91207423054e-163
9.91207423054e-163
9.91207423055e-163
9.91207423055e-163
9.91207423055e-163
9.91207423055e-163
9.91207423055e-163
9.91207423055e-163
9.91207423056e-163
9.91207423056e-163
9.91207423056e-163
9.91207423056e-163
9.91207423057e-163
9.91207423074e-163
9.91207424151e-163
9.9120749208e-163
9.91211776328e-163
9.91476476376e-163
1.00192825591e-162
3.33530725184e-63
3.78054661009e-13
1.26820872085e-08
6.11471711018e-06
1.4933272197e-05
1.9698028166e-05
2.17743963899e-05
2.26439868113e-05
2.30237827392e-05
2.32399375729e-05
2.34228196481e-05
2.35974006576e-05
2.37660234724e-05
2.39346976574e-05
2.40978389623e-05
2.42621011255e-05
2.44241385023e-05
2.45810028813e-05
2.47390132218e-05
2.48947918509e-05
2.50451914973e-05
2.51967167847e-05
2.53425551337e-05
2.54894565202e-05
2.56336871779e-05
2.57711870575e-05
2.59091205314e-05
2.60431054388e-05
2.61726442952e-05
2.62939003537e-05
2.64134529718e-05
2.65270983839e-05
2.66307910888e-05
2.67312870239e-05
2.6824310199e-05
2.69095889653e-05
2.69867999885e-05
2.70512700173e-05
2.71105588055e-05
2.71602823628e-05
2.7200586949e-05
2.72312933294e-05
2.72522943736e-05
2.72666280601e-05
9.91207423048e-163
9.91207423048e-163
9.91207423048e-163
9.91207423048e-163
9.91207423048e-163
9.91207423049e-163
9.91207423049e-163
9.91207423049e-163
9.91207423049e-163
9.91207423049e-163
9.9120742305e-163
9.9120742305e-163
9.9120742305e-163
9.9120742305e-163
9.9120742305e-163
9.9120742305e-163
9.91207423051e-163
9.91207423051e-163
9.91207423051e-163
9.91207423052e-163
9.91207423092e-163
9.91207425652e-163
9.91207588289e-163
9.91217436051e-163
9.91811296025e-163
1.00712865328e-162
8.34510804531e-63
4.96692154323e-12
2.5421422781e-08
7.70407070516e-06
1.56081887069e-05
1.9699076062e-05
2.14489166809e-05
2.22057920742e-05
2.25462709979e-05
2.27661659948e-05
2.29613392091e-05
2.31463711955e-05
2.33302424157e-05
2.35076269456e-05
2.36853707068e-05
2.38571177186e-05
2.40295350153e-05
2.41996082438e-05
2.43635707771e-05
2.45287746036e-05
2.46877966259e-05
2.48476186379e-05
2.50045100064e-05
2.51548281419e-05
2.53058104224e-05
2.54531001503e-05
2.55929756035e-05
2.57321884907e-05
2.58671671739e-05
2.59927408934e-05
2.61165547887e-05
2.62345176035e-05
2.63456112249e-05
2.64456340028e-05
2.65416166603e-05
2.66292321598e-05
2.67084090084e-05
2.67745849326e-05
2.68355064748e-05
2.68868742449e-05
2.69285165074e-05
2.6960092005e-05
2.69817396982e-05
2.69961856531e-05
9.91207423043e-163
9.91207423043e-163
9.91207423043e-163
9.91207423044e-163
9.91207423044e-163
9.91207423044e-163
9.91207423044e-163
9.91207423044e-163
9.91207423045e-163
9.91207423045e-163
9.91207423045e-163
9.91207423045e-163
9.91207423045e-163
9.91207423045e-163
9.91207423046e-163
9.91207423046e-163
9.91207423046e-163
9.91207423046e-163
9.91207423046e-163
9.91207423048e-163
9.91207423143e-163
9.91207429033e-163
9.91207791743e-163
9.91229093863e-163
9.92506959629e-163
1.01819430411e-162
1.01803308661e-39
5.82440197829e-10
1.11388678316e-07
9.22647759677e-06
1.61718875383e-05
1.96109283183e-05
2.10905454351e-05
2.17320974219e-05
2.20513815324e-05
2.22781904676e-05
2.24833264418e-05
2.26847499692e-05
2.28786297866e-05
2.30717447923e-05
2.3258265794e-05
2.3444353278e-05
2.36235917695e-05
2.38036168747e-05
2.39768118649e-05
2.41508752232e-05
2.43216352906e-05
2.4486072252e-05
2.46509225364e-05
2.48086152479e-05
2.49662530462e-05
2.51202302753e-05
2.52657382529e-05
2.54104037007e-05
2.55497042464e-05
2.5679865661e-05
2.58080478452e-05
2.59296893247e-05
2.60441338634e-05
2.61468712232e-05
2.62457065747e-05
2.63362093015e-05
2.64176508301e-05
2.64856902173e-05
2.65482462954e-05
2.66008318393e-05
2.66434785034e-05
2.66760418698e-05
2.66984140462e-05
2.67132323456e-05
9.91207423039e-163
9.91207423039e-163
9.91207423039e-163
9.91207423039e-163
9.9120742304e-163
9.9120742304e-163
9.9120742304e-163
9.9120742304e-163
9.9120742304e-163
9.91207423041e-163
9.91207423041e-163
9.91207423041e-163
9.91207423041e-163
9.91207423041e-163
9.91207423041e-163
9.91207423042e-163
9.91207423042e-163
9.91207423042e-163
9.91207423042e-163
9.91207423046e-163
9.91207423271e-163
9.9120743729e-163
9.91208304475e-163
9.91259247268e-163
9.94292770969e-163
1.04251371795e-162
5.27133613203e-21
2.94212656919e-09
1.23059372659e-06
1.06639074592e-05
1.66252590726e-05
1.94731063584e-05
2.06972697074e-05
2.12466250463e-05
2.1545100535e-05
2.17774663204e-05
2.19986604087e-05
2.22102378939e-05
2.24201313501e-05
2.2622112984e-05
2.28229099219e-05
2.30168390635e-05
2.32106039889e-05
2.3397172639e-05
2.35836780387e-05
2.37629961893e-05
2.39422620555e-05
2.4114344684e-05
2.42866662648e-05
2.4451108347e-05
2.46152918115e-05
2.47751828744e-05
2.49268403772e-05
2.50768843753e-05
2.52214722136e-05
2.5356211392e-05
2.54882336585e-05
2.56136074201e-05
2.57272368587e-05
2.58371050026e-05
2.59384923646e-05
2.60310084293e-05
2.61144903103e-05
2.61842500504e-05
2.62483789654e-05
2.63024628786e-05
2.63462755633e-05
2.63796656002e-05
2.64028341834e-05
2.64177108033e-05
9.91207423035e-163
9.91207423035e-163
9.91207423036e-163
9.91207423036e-163
9.91207423036e-163
9.91207423036e-163
9.91207423036e-163
9.91207423036e-163
9.91207423037e-163
9.91207423037e-163
9.91207423037e-163
9.91207423037e-163
9.91207423037e-163
9.91207423037e-163
9.91207423038e-163
9.91207423038e-163
9.91207423038e-163
9.91207423038e-163
9.91207423038e-163
9.91207423048e-163
9.91207423621e-163
9.91207458676e-163
9.9120958214e-163
9.9133102747e-163
9.98207739419e-163
1.0866498586e-162
4.1016438448e-15
6.39896334107e-09
3.14095634586e-06
1.18622840026e-05
1.69343968467e-05
1.92509662099e-05
2.02653905484e-05
2.07378901028e-05
2.10257537059e-05
2.12714989536e-05
2.15028237272e-05
2.17305391037e-05
2.19497993758e-05
2.21638348122e-05
2.23765632562e-05
2.25813842636e-05
2.27851087911e-05
2.29814403515e-05
2.31772826409e-05
2.33656167945e-05
2.35536832148e-05
2.37337199643e-05
2.39129765405e-05
2.4084278815e-05
2.42548457216e-05
2.44208926136e-05