/*--------------------------------*- C++ -*----------------------------------*\
| =========                 |                                                 |
| \\      /  F ield         | foam-extend: Open Source CFD                    |
|  \\    /   O peration     | Version:     4.1                                |
|   \\  /    A nd           | Web:         http://www.foam-extend.org         |
|    \\/     M anipulation  |                                                 |
\*---------------------------------------------------------------------------*/
FoamFile
{
    version     2.0;
    format      ascii;
    class       volScalarField;
    location    "0.0003";
    object      Mach;
}
// * * * * * * * * * * * * * * * * * * * * * * * * * * * * * * * * * * * * * //

dimensions      [0 0 0 0 0 0 0];

internalField   nonuniform List<scalar> 
8400
(
56.1971337836
56.1971337836
56.1971337836
56.1971337837
56.1971337837
56.1971337837
56.1971337838
56.1971337838
56.1971337838
56.1971337839
56.1971337839
56.1971337839
56.197133784
56.197133784
56.197133784
56.1971337841
56.1971337841
56.1971337841
56.1971337841
56.1971337842
56.1971337842
56.1971337842
56.1971337842
56.1971337843
56.1971337842
56.1971337802
56.1971335252
56.1971177087
56.1961646923
56.1526883351
25.2925066057
10.6950687732
4.76248339821
2.46834676488
1.27953404677
0.658481123199
0.362743378975
0.247241509859
0.212007406583
0.201424821855
0.196386318831
0.192371020976
0.188451632853
0.184448619542
0.180341871328
0.176163879778
0.171925883496
0.167657586458
0.163442171074
0.159291045611
0.155230598237
0.151309486589
0.147533344399
0.143915839052
0.140518136868
0.137343925461
0.134424460168
0.13180768759
0.129497162619
0.127474510426
0.125754736299
0.124308851223
0.123119906222
0.122177998593
0.12146328246
0.120955583175
0.120623830278
0.120418215243
0.120290659044
0.120321528277
56.1971337886
56.1971337886
56.1971337886
56.1971337886
56.1971337886
56.1971337886
56.1971337886
56.1971337886
56.1971337887
56.1971337887
56.1971337887
56.1971337887
56.1971337887
56.1971337887
56.1971337887
56.1971337887
56.1971337887
56.1971337888
56.1971337888
56.1971337888
56.1971337888
56.1971337888
56.1971337888
56.1971337888
56.1971337885
56.1971337675
56.1971324
56.1970456608
56.1921879275
50.937726968
17.439422117
8.01938113069
3.51960514404
1.82677147156
0.93027413676
0.476889263722
0.279610138063
0.213461865884
0.195040992925
0.188557559722
0.184624923314
0.181329019258
0.17830152721
0.175475235209
0.172843135211
0.170407034582
0.16817199274
0.166148245214
0.164342579179
0.162751924227
0.161371356955
0.160199389214
0.159230778409
0.158471721345
0.157901425458
0.157496400472
0.15727933201
0.157228851123
0.157322945184
0.157532415253
0.157828034072
0.158185652387
0.15858714047
0.159010509528
0.15941778473
0.159798933185
0.160125552978
0.160378179403
0.160542656303
0.160637614763
56.1971337909
56.1971337909
56.1971337909
56.1971337909
56.1971337909
56.1971337909
56.1971337909
56.1971337909
56.1971337909
56.1971337909
56.197133791
56.197133791
56.197133791
56.197133791
56.197133791
56.197133791
56.197133791
56.197133791
56.197133791
56.197133791
56.197133791
56.197133791
56.197133791
56.197133791
56.1971337889
56.1971336528
56.1971249692
56.19658668
56.171012733
31.0715263711
11.638381316
5.24014984847
2.67400607999
1.37786077389
0.702514411464
0.384804619779
0.267190776005
0.234377374379
0.225155916022
0.22099299218
0.21796897
0.215385491301
0.213116628735
0.211132537628
0.209416877848
0.207957902194
0.206749214574
0.205784949956
0.205048839016
0.204520100411
0.204177714667
0.204000779848
0.203977190841
0.204097781157
0.204350986628
0.20472320577
0.205170723063
0.205697395483
0.206275988249
0.206886974271
0.207513002864
0.208134703815
0.208728114815
0.209278592739
0.209783298045
0.210203071901
0.210543690148
0.210790383547
0.21093437049
0.210985391837
56.1971337921
56.1971337921
56.1971337921
56.1971337921
56.1971337921
56.1971337921
56.1971337922
56.1971337922
56.1971337922
56.1971337922
56.1971337922
56.1971337922
56.1971337922
56.1971337922
56.1971337922
56.1971337922
56.1971337922
56.1971337922
56.1971337922
56.1971337922
56.1971337922
56.1971337922
56.1971337922
56.1971337921
56.1971337839
56.1971332703
56.1971018477
56.195240582
56.1147253854
20.1317576751
9.51054528916
4.16059799096
2.16168124282
1.11722295503
0.593515061497
0.373936017024
0.305905274098
0.288065936215
0.281802806811
0.277913904861
0.274692946358
0.271839855616
0.269293184992
0.267031634707
0.265039129483
0.263301448188
0.261806157625
0.260541711501
0.259488947744
0.258628728841
0.257943264926
0.257416028418
0.257036961185
0.25679988612
0.256660015171
0.256629490537
0.256683862517
0.256805950088
0.256978330321
0.257188396738
0.257426195508
0.257688975665
0.257930159369
0.258156712728
0.258354867571
0.258517275029
0.258638531074
0.25871140194
0.258729046954
0.258701005551
56.1971337929
56.1971337929
56.1971337929
56.1971337929
56.1971337929
56.1971337929
56.1971337929
56.1971337929
56.1971337929
56.1971337929
56.1971337929
56.1971337929
56.1971337929
56.1971337929
56.1971337929
56.1971337929
56.1971337929
56.1971337929
56.1971337929
56.1971337929
56.1971337929
56.1971337929
56.1971337929
56.1971337926
56.1971337725
56.1971324582
56.1970484402
56.1922881968
51.0825005325
17.4517387516
8.0248955066
3.52618159304
1.84497702085
0.971934753728
0.560146193692
0.408603927519
0.366428438487
0.354317235884
0.348535153296
0.344106131187
0.340154415581
0.336532591933
0.333202522067
0.330143152384
0.327343245381
0.324789536222
0.322468744792
0.320367227727
0.318472462547
0.31676877829
0.315248528544
0.313908599519
0.312701760285
0.311641579703
0.310713350496
0.309909191863
0.309216389211
0.308616425628
0.308098555085
0.307667580584
0.307282313395
0.306956365655
0.306678656557
0.306437516423
0.306225400706
0.306038839979
0.305871767271
0.305720355542
0.305578574906
0.305458391646
56.1971337933
56.1971337933
56.1971337933
56.1971337933
56.1971337933
56.1971337933
56.1971337933
56.1971337933
56.1971337933
56.1971337933
56.1971337933
56.1971337934
56.1971337934
56.1971337934
56.1971337934
56.1971337934
56.1971337934
56.1971337934
56.1971337934
56.1971337934
56.1971337934
56.1971337934
56.1971337934
56.1971337925
56.1971337394
56.1971303749
56.1969237578
56.1866836559
42.5197738109
15.0434784531
6.80190979253
3.10255328901
1.63977523973
0.896796389839
0.571570414137
0.464199936038
0.4349963462
0.424912347115
0.418748637592
0.413494730211
0.408640202795
0.404090121929
0.399813895072
0.39579780522
0.392027552359
0.388493596803
0.385190280461
0.38210510898
0.379228053952
0.376565320162
0.374064012365
0.371748850991
0.369605763866
0.367626274695
0.365801407972
0.364122247423
0.362602388936
0.36119114862
0.359907367651
0.358742815024
0.357692353951
0.356748352463
0.355903806843
0.355159265897
0.354511515857
0.353976361728
0.353505023924
0.353117779483
0.35280923601
0.352595165024
56.1971337936
56.1971337936
56.1971337937
56.1971337937
56.1971337937
56.1971337937
56.1971337937
56.1971337937
56.1971337937
56.1971337937
56.1971337937
56.1971337937
56.1971337937
56.1971337937
56.1971337937
56.1971337937
56.1971337937
56.1971337937
56.1971337937
56.1971337937
56.1971337937
56.1971337937
56.1971337937
56.197133792
56.1971336848
56.1971268967
56.1967034771
56.1758497844
32.9782714022
12.0110929482
5.47845918693
2.80358910122
1.50437469669
0.866510720193
0.608035835811
0.529002309084
0.506571798472
0.497084933892
0.490236279442
0.484056488047
0.478225691054
0.472684105863
0.467413379734
0.462395965668
0.457620792979
0.453079255047
0.448767886685
0.444699483385
0.440811869257
0.437132988189
0.433657280462
0.430374896862
0.427282364155
0.424374012738
0.421668861992
0.419112039123
0.416731265741
0.414521485928
0.412479590582
0.410602190488
0.408886391821
0.407357205935
0.405957841848
0.404721882137
0.403644561652
0.402721682741
0.401952545259
0.401333841033
0.400863853995
0.400562917902
56.1971337939
56.1971337939
56.1971337939
56.1971337939
56.1971337939
56.1971337939
56.1971337939
56.1971337939
56.1971337939
56.1971337939
56.1971337939
56.1971337939
56.1971337939
56.1971337939
56.1971337939
56.1971337939
56.1971337939
56.1971337939
56.1971337939
56.1971337939
56.1971337939
56.1971337939
56.1971337939
56.1971337906
56.1971335812
56.1971204141
56.1963161015
56.1590203356
26.7534171618
10.9319340239
4.91253516335
2.57702673337
1.41492121022
0.86607909512
0.659200542893
0.598315124012
0.579499624516
0.569919156523
0.562238479887
0.555092179595
0.548263668535
0.541714538992
0.535434947323
0.529410118497
0.523658453836
0.518107980133
0.512792043651
0.507700853936
0.502830073888
0.498179633585
0.493742317876
0.489519377411
0.485529595918
0.481714416346
0.478112024873
0.474716420105
0.471525154758
0.468543646039
0.465771851893
0.463241419513
0.460887171304
0.458749671613
0.456828961846
0.455125210666
0.453635106131
0.452362728297
0.451308383046
0.45047103169
0.449848528261
0.44946503922
56.1971337941
56.1971337941
56.1971337941
56.1971337941
56.1971337941
56.1971337941
56.1971337941
56.1971337941
56.1971337941
56.1971337941
56.1971337941
56.1971337941
56.1971337941
56.1971337941
56.1971337941
56.1971337941
56.1971337941
56.1971337941
56.1971337941
56.1971337941
56.1971337941
56.1971337941
56.197133794
56.1971337883
56.1971334247
56.1971108301
56.1957506842
56.1355512877
22.1619824544
10.0965821002
4.497790009
2.40237522928
1.35864393209
0.886278002965
0.718983810283
0.67012016496
0.653237779693
0.643176669608
0.634566520291
0.626412209063
0.61856557919
0.611001256063
0.603736927592
0.596692784547
0.589907160365
0.583365490034
0.577062976051
0.570993608428
0.565158375106
0.55955674436
0.554213095288
0.549069844111
0.544158120834
0.539485431454
0.535046192208
0.530841703585
0.526908398575
0.523187053178
0.519718949901
0.516506707652
0.513557235967
0.510871037261
0.508448860756
0.506329340201
0.504450246372
0.502848163418
0.501524175862
0.500477521728
0.499706804588
0.499241963015
56.1971337942
56.1971337942
56.1971337942
56.1971337942
56.1971337942
56.1971337942
56.1971337942
56.1971337942
56.1971337942
56.1971337942
56.1971337942
56.1971337942
56.1971337942
56.1971337942
56.1971337942
56.1971337942
56.1971337942
56.1971337942
56.1971337942
56.1971337942
56.1971337942
56.1971337942
56.1971337941
56.1971337848
56.1971332027
56.1970977458
56.1950101144
56.1065385017
19.5894804623
9.36349421903
4.16312000809
2.26427815639
1.32631505571
0.921057063319
0.784370152812
0.743605545958
0.727548651665
0.71679969671
0.707186356589
0.697993988384
0.689106856114
0.680540543573
0.672210413481
0.664156975465
0.656369426305
0.648833498618
0.641552252419
0.634517745767
0.627770978125
0.621233801343
0.614950532752
0.608919797908
0.603145525335
0.597633039202
0.592420223736
0.5874373746
0.582732634212
0.578311393646
0.5741822337
0.570353620809
0.56686325383
0.563649831093
0.560754777742
0.558179822306
0.555933714098
0.554019816455
0.552439795695
0.551194282928
0.550282132509
0.549741296776
56.1971337943
56.1971337943
56.1971337943
56.1971337943
56.1971337943
56.1971337943
56.1971337943
56.1971337943
56.1971337943
56.1971337943
56.1971337943
56.1971337943
56.1971337943
56.1971337943
56.1971337943
56.1971337943
56.1971337943
56.1971337943
56.1971337943
56.1971337943
56.1971337943
56.1971337943
56.1971337941
56.19713378
56.1971329151
56.197081353
56.1939486045
54.4831474534
18.4167756584
8.66720606511
3.88202314966
2.15087500583
1.31242516788
0.966839507786
0.853553929461
0.818247560424
0.802427601929
0.79080466796
0.780124601245
0.769891760468
0.75993299133
0.750273338555
0.740912631956
0.731835552616
0.723038357943
0.71451172501
0.706294893367
0.698301276576
0.69058546927
0.683140742689
0.67596844984
0.669107608252
0.662487439384
0.656163223805
0.650130817277
0.644402999281
0.638985691263
0.633928895788
0.629163732001
0.624742607909
0.620671700729
0.616958481907
0.613607075478
0.610669718635
0.608069594728
0.605857240387
0.604032041059
0.602594900714
0.601545695105
0.600930807666
56.1971337944
56.1971337944
56.1971337944
56.1971337944
56.1971337944
56.1971337944
56.1971337944
56.1971337944
56.1971337944
56.1971337944
56.1971337944
56.1971337944
56.1971337944
56.1971337944
56.1971337944
56.1971337944
56.1971337944
56.1971337944
56.1971337944
56.1971337944
56.1971337944
56.1971337944
56.1971337941
56.1971337712
56.1971322752
56.1970371715
56.1917717769
50.2225111433
17.2756629191
8.01638843679
3.63416586054
2.05882732329
1.31432264805
1.02006555084
0.925244003902
0.893767020339
0.877868883119
0.865190630881
0.85343781297
0.842047776445
0.830997578582
0.82026817263
0.809852832906
0.799740629741
0.789967224896
0.780444741621
0.77121867936
0.762286951425
0.753645555877
0.74534049224
0.737284698173
0.729537928625
0.722103824892
0.714987616249
0.708236975264
0.701778694506
0.695672808914
0.689928550305
0.684550789994
0.679600329606
0.674999698333
0.670803019407
0.667022041586
0.663660846217
0.660728051438
0.65822836853
0.656168078229
0.654547332059
0.653365375462
0.652680480219
56.1971337945
56.1971337945
56.1971337945
56.1971337945
56.1971337945
56.1971337945
56.1971337945
56.1971337945
56.1971337945
56.1971337945
56.1971337945
56.1971337945
56.1971337945
56.1971337945
56.1971337945
56.1971337945
56.1971337945
56.1971337945
56.1971337945
56.1971337945
56.1971337945
56.1971337945
56.1971337938
56.1971337516
56.1971310551
56.1969649445
56.1885837024
45.1356294013
15.9557704614
7.34472662003
3.41369848643
1.98532710705
1.32811931639
1.0792108167
0.998894636134
0.970082500618
0.953745570637
0.940022345692
0.927058423871
0.914520018307
0.902354926916
0.890537174421
0.87909632827
0.867936015826
0.857100376296
0.846587327281
0.836389616306
0.826556950511
0.816990710177
0.807755016193
0.798840452989
0.790262184362
0.782068244333
0.774175035923
0.766645727279
0.759484927369
0.752757289203
0.746380573445
0.740414373877
0.734870718093
0.729760369064
0.725094324287
0.720937468491
0.717202409436
0.713946475316
0.71117438801
0.708886833181
0.707087733353
0.705776950302
0.705025043549
56.1971337945
56.1971337945
56.1971337945
56.1971337945
56.1971337945
56.1971337945
56.1971337945
56.1971337946
56.1971337946
56.1971337946
56.1971337946
56.1971337946
56.1971337946
56.1971337946
56.1971337946
56.1971337946
56.1971337946
56.1971337946
56.1971337946
56.1971337946
56.1971337946
56.1971337945
56.1971337934
56.1971337201
56.1971291475
56.196852448
56.1836726452
39.1460734016
13.8219615628
6.61590138259
3.21499075632
1.92768649128
1.35311258548
1.14257019011
1.07398047692
1.04706182386
1.03004819408
1.01518609363
1.00102359762
0.987322011233
0.974011123986
0.961129802676
0.948560641595
0.936349086716
0.924491712391
0.913028077876
0.901856247929
0.89103840913
0.88056281351
0.870488454494
0.860719257706
0.851314782443
0.842287553003
0.833639917573
0.8254383379
0.817590548186
0.810170927636
0.803181231196
0.79669006349
0.790607967946
0.785004232204
0.779891306342
0.775286335612
0.771196249475
0.767625259805
0.764630673689
0.762119460827
0.760147441939
0.758711018151
0.757893476627
56.1971337946
56.1971337946
56.1971337946
56.1971337946
56.1971337946
56.1971337946
56.1971337946
56.1971337946
56.1971337946
56.1971337946
56.1971337946
56.1971337946
56.1971337946
56.1971337946
56.1971337946
56.1971337946
56.1971337946
56.1971337946
56.1971337946
56.1971337946
56.1971337946
56.1971337946
56.1971337926
56.1971336665
56.1971257952
56.1966428135
56.1739168657
32.1912056539
11.9287926857
5.61801207653
3.03383827123
1.88375119205
1.38677845229
1.20973912336
1.15027112604
1.1246017346
1.10679157603
1.09074366782
1.07535891801
1.06049952089
1.04601357214
1.03194622646
1.01828586786
1.00506574221
0.992176275739
0.979663567016
0.967532365797
0.955824777538
0.944443820349
0.933446033296
0.922839659574
0.912681670335
0.902869305245
0.893478832422
0.884513107804
0.876057669066
0.868007013429
0.860422599767
0.853317051486
0.846713035411
0.840683581602
0.835140120536
0.830146319984
0.825709752632
0.821833985885
0.818530159021
0.815806492037
0.813664002478
0.812155142285
0.811272797322
56.1971337946
56.1971337946
56.1971337946
56.1971337947
56.1971337947
56.1971337947
56.1971337947
56.1971337947
56.1971337947
56.1971337947
56.1971337947
56.1971337947
56.1971337947
56.1971337947
56.1971337947
56.1971337947
56.1971337947
56.1971337947
56.1971337947
56.1971337947
56.1971337947
56.1971337946
56.197133791
56.1971335601
56.197119254
56.1962562186
56.1573715647
26.2912969535
10.9487521014
5.07911307404
2.87081933095
1.85239054847
1.4284924906
1.27951306715
1.22774944694
1.20270476361
1.18393830675
1.16664925239
1.15006422023
1.13392656658
1.118265482
1.10305432643
1.08833957056
1.07399180037
1.06006030082
1.04660255558
1.03350002888
1.0208107243
1.00853483379
0.99673286584
0.985292956878
0.974287492369
0.963774174537
0.953656408285
0.944001333124
0.934825434181
0.926207598792
0.918038549623
0.910396261388
0.903295736606
0.89674843118
0.890838245263
0.885461898329
0.88068693315
0.876520253667
0.872969061209
0.870035022596
0.867725666951
0.866037625379
0.865095948757
56.1971337947
56.1971337947
56.1971337947
56.1971337947
56.1971337947
56.1971337947
56.1971337947
56.1971337947
56.1971337947
56.1971337947
56.1971337947
56.1971337947
56.1971337947
56.1971337947
56.1971337947
56.1971337947
56.1971337947
56.1971337947
56.1971337947
56.1971337947
56.1971337947
56.1971337946
56.1971337878
56.1971333609
56.1971072059
56.1955584241
56.1298575988
21.5260667533
10.071638616
4.6649332959
2.72393233629
1.83554110496
1.47658689478
1.35194552379
1.305851457
1.28121350078
1.26142593841
1.24293603221
1.22501975483
1.20765216996
1.19085183447
1.17448751513
1.15859614284
1.14322935812
1.12825952755
1.11374239381
1.0996730712
1.08611223635
1.07294100569
1.06022516112
1.04802790691
1.03623712811
1.02492123549
1.01415602515
1.00382182958
0.994009680063
0.984727525893
0.976056514948
0.96788680422
0.960296544932
0.953304437314
0.946925591315
0.941239095956
0.936133806792
0.931682050631
0.927885041364
0.924750683113
0.922279573106
0.920469108793
0.919464554637
56.1971337947
56.1971337947
56.1971337947
56.1971337947
56.1971337947
56.1971337947
56.1971337947
56.1971337947
56.1971337947
56.1971337947
56.1971337947
56.1971337947
56.1971337947
56.1971337947
56.1971337947
56.1971337947
56.1971337947
56.1971337947
56.1971337947
56.1971337947
56.1971337947
56.1971337945
56.1971337819
56.1971330098
56.1970871331
56.1944659379
56.0913795924
19.0253175229
9.21160647391
4.29718742189
2.59671016468
1.83084224015
1.53130263224
1.42647004373
1.38488535207
1.3601756564
1.33931924826
1.31946548423
1.30025844835
1.28169689884
1.26361917669
1.2460814147
1.22913322115
1.21263053101
1.196620183
1.18117012969
1.1661437379
1.15160000548
1.13761509122
1.12405153038
1.11097413477
1.09847688602
1.08642019368
1.07489359814
1.0639729295
1.05353684723
1.04367194392
1.03438856036
1.02577670209
1.01771411474
1.01029408305
1.00352416698
0.997418530963
0.992060711301
0.987326925032
0.983294880668
0.979960439056
0.977328607315
0.975395775407
0.974333182722
56.1971337948
56.1971337948
56.1971337948
56.1971337948
56.1971337948
56.1971337948
56.1971337948
56.1971337948
56.1971337948
56.1971337948
56.1971337948
56.1971337948
56.1971337948
56.1971337948
56.1971337948
56.1971337948
56.1971337948
56.1971337948
56.1971337948
56.1971337948
56.1971337948
56.1971337944
56.1971337707
56.1971322657
56.1970381633
56.1918550963
50.5628880292
17.4698186215
8.32494428987
3.96395529752
2.48682336956
1.83811675166
1.59119830332
1.503088002
1.46477181613
1.43962537539
1.41741253836
1.39621662219
1.37577256262
1.35588311914
1.33666230075
1.31795165641
1.29980973189
1.28228805803
1.26523649509
1.24873236537
1.23282410739
1.2173700006
1.20251809719
1.18812639996
1.17425964085
1.16100636538
1.14822853874
1.13601646291
1.12438163352
1.11340774499
1.10297121652
1.0931615197
1.0840550839
1.07554085228
1.06770582778
1.06055870703
1.05411362233
1.04845245326
1.04345424841
1.03919365176
1.03566877676
1.03288115878
1.03082814535
1.02971209582
56.1971337948
56.1971337948
56.1971337948
56.1971337948
56.1971337948
56.1971337948
56.1971337948
56.1971337948
56.1971337948
56.1971337948
56.1971337948
56.1971337948
56.1971337948
56.1971337948
56.1971337948
56.1971337948
56.1971337948
56.1971337948
56.1971337948
56.1971337948
56.1971337948
56.1971337939
56.1971337373
56.1971302202
56.1969190049
56.1868744297
43.0708440353
15.5448658827
7.41041161076
3.66468288124
2.39898371933
1.85765395041
1.65604078147
1.58090585211
1.54518389508
1.51929430434
1.49573947626
1.4732268141
1.45138784822
1.4303027075
1.40979346636
1.3899906658
1.37072482777
1.35205954801
1.33405955621
1.31655563008
1.29969844024
1.28334922681
1.26756438166
1.25243016966
1.23778517615
1.22372317513
1.21032263536
1.1974512609
1.18518623056
1.1736327369
1.16264421633
1.15231032423
1.14265521939
1.13377640424
1.12553824939
1.1180324275
1.11126458275
1.10532619474
1.10006972545
1.09558291464
1.09186865902
1.08892780233
1.08675570506
1.08558622649
56.1971337948
56.1971337948
56.1971337948
56.1971337948
56.1971337948
56.1971337948
56.1971337948
56.1971337948
56.1971337948
56.1971337948
56.1971337948
56.1971337948
56.1971337948
56.1971337948
56.1971337948
56.1971337948
56.1971337948
56.1971337948
56.1971337948
56.1971337948
56.1971337948
56.1971337928
56.1971336662
56.1971260311
56.1966752922
56.176284772
33.2285069244
12.2208070217
6.29798370471
3.39927255793
2.33275360086
1.88829532426
1.72445229897
1.66027050329
1.62606068995
1.59920502232
1.5743269045
1.55033127006
1.5272116241
1.50475554764
1.4830895602
1.46203970761
1.4417448287
1.42201633966
1.40300296166
1.38452936781
1.36668392391
1.34952252041
1.33288873259
1.31695006726
1.30154325295
1.28675287062
1.27267731229
1.25916162622
1.24630103232
1.23418894074
1.22266552529
1.21184138239
1.20173388001
1.19244586563
1.1838252059
1.17596664358
1.16888263692
1.16266788337
1.15716856658
1.15247317473
1.14858055032
1.1454885887
1.1431921883
1.14196810937
56.1971337948
56.1971337948
56.1971337948
56.1971337948
56.1971337948
56.1971337948
56.1971337949
56.1971337949
56.1971337949
56.1971337949
56.1971337949
56.1971337949
56.1971337949
56.1971337949
56.1971337949
56.1971337949
56.1971337949
56.1971337949
56.1971337949
56.1971337949
56.1971337948
56.1971337899
56.1971334898
56.197115331
56.196045346
56.1505582498
24.7285205739
10.8123754113
5.21896706661
3.17177671749
2.28531575478
1.92869899184
1.79623252815
1.74050451416
1.70716983248
1.67927411716
1.65288670551
1.62755432396
1.60300368441
1.57935566486
1.5563931072
1.53426286642
1.51276339903
1.49205639202
1.47194548569
1.45261585977
1.4338519128
1.41583716913
1.39838996468
1.38167959996
1.36553385584
1.35004534831
1.33530686753
1.32116735866
1.30772055112
1.29506083599
1.28303409404
1.27174008646
1.26128828939
1.25151934469
1.24254000847
1.23435781324
1.22698016424
1.22050773801
1.2147756253
1.20987743817
1.20580536578
1.20256630786
1.20014837241
1.19887283167
56.1971337949
56.1971337949
56.1971337949
56.1971337949
56.1971337949
56.1971337949
56.1971337949
56.1971337949
56.1971337949
56.1971337949
56.1971337949
56.1971337949
56.1971337949
56.1971337949
56.1971337949
56.1971337949
56.1971337949
56.1971337949
56.1971337949
56.1971337949
56.1971337947
56.1971337826
56.1971330467
56.1970896267
56.1946230516
56.0995965334
19.3920283751
9.56634406009
4.64518978654
2.98101753448
2.26151049279
1.97788551189
1.87095837666
1.82157542338
1.78848096838
1.75923979905
1.73149056929
1.7046751643
1.67886367546
1.65392511209
1.62974517206
1.60647002917
1.58388193052
1.56214487377
1.54104930834
1.52077411587
1.50111368433
1.48225967835
1.46401738523
1.44656237201
1.42970391892
1.4135435955
1.39818434661
1.38345058892
1.3694503444
1.35627301183
1.34376193376
1.33202167815
1.32116012303
1.31101608497
1.30169192492
1.29319755595
1.28564093722
1.27883251715
1.27288046107
1.26778294549
1.26354334678
1.26014926586
1.25770088446
1.25637675981
56.1971337949
56.1971337949
56.1971337949
56.1971337949
56.1971337949
56.1971337949
56.1971337949
56.1971337949
56.1971337949
56.1971337949
56.1971337949
56.1971337949
56.1971337949
56.1971337949
56.1971337949
56.1971337949
56.1971337949
56.1971337949
56.1971337949
56.1971337949
56.1971337944
56.197133763
56.1971317826
56.1970098043
56.1906658194
48.7202772025
17.1576324552
8.34802992822
4.17693296545
2.82850418932
2.25687008257
2.03627680275
1.94819805902
1.90325667127
1.8697952326
1.83923520976
1.80991197014
1.78174293171
1.75457796818
1.72829688028
1.70300490952
1.67859855311
1.6549354242
1.63218709401
1.6101414276
1.58897073622
1.56844975837
1.54878456849
1.52976680173
1.51157955979
1.49403518195
1.47723645406
1.46128347541
1.44598416963
1.43155766198
1.41780272818
1.40484298823
1.39278779001
1.38145285371
1.37095364564
1.36130161707
1.35260964103
1.34468523225
1.33764159801
1.33147507876
1.32618312534
1.32187604274
1.31833885682
1.3156743996
1.31429884016
56.1971337949
56.1971337949
56.1971337949
56.1971337949
56.1971337949
56.1971337949
56.1971337949
56.1971337949
56.1971337949
56.1971337949
56.1971337949
56.1971337949
56.1971337949
56.1971337949
56.1971337949
56.1971337949
56.1971337949
56.1971337949
56.1971337949
56.1971337949
56.1971337932
56.1971336911
56.1971275773
56.1967729526
56.1812928664
37.1353464348
13.5879550414
7.10007962339
3.79132092431
2.71676669089
2.27269760118
2.10039414586
2.0275044242
1.98526421074
1.95099988887
1.91888866327
1.88819380494
1.85864131385
1.83014428188
1.80260538856
1.77612337942
1.75058312318
1.72587334092
1.70214896155
1.67917000466
1.6571250684
1.63577986336
1.61535247232
1.59558717715
1.57672108901
1.55852962063
1.54122095143
1.52459600457
1.50876183495
1.49383637026
1.47962390091
1.46625061105
1.45381895873
1.44213168938
1.43130488942
1.42145748538
1.4123937698
1.40422673271
1.39695631639
1.39069739363
1.38522651843
1.38065470846
1.37697648798
1.37418428849
1.37275371249
56.1971337949
56.1971337949
56.1971337949
56.1971337949
56.1971337949
56.1971337949
56.1971337949
56.1971337949
56.1971337949
56.1971337949
56.1971337949
56.1971337949
56.1971337949
56.1971337949
56.1971337949
56.1971337949
56.1971337949
56.1971337949
56.1971337949
56.1971337949
56.1971337897
56.1971334791
56.1971150026
56.1960441091
56.1523025078
25.2428052189
11.0197801985
5.5259773562
3.48037103053
2.64202366615
2.3038970799
2.17045417609
2.10814267367
2.06732054115
2.03179482805
1.99828866013
1.96611277445
1.93518813679
1.90540840516
1.87664528045
1.84902081712
1.82241570725
1.79667307372
1.77198007625
1.74808398509
1.72519594934
1.70307647273
1.68189760502
1.66145807998
1.64194168687
1.62313918592
1.60528017987
1.58812262675
1.57191060065
1.55642216958
1.54178806041
1.52812559973
1.51522281014
1.50319949296
1.49218923666
1.48195426215
1.47263439707
1.46423085198
1.45687332415
1.4503167776
1.44468134531
1.43995835341
1.43613958283
1.43321451739
1.43184634868
56.1971337949
56.1971337949
56.1971337949
56.1971337949
56.1971337949
56.1971337949
56.1971337949
56.1971337949
56.1971337949
56.1971337949
56.1971337949
56.1971337949
56.197133795
56.197133795
56.197133795
56.197133795
56.197133795
56.197133795
56.1971337949
56.1971337947
56.197133778
56.1971327882
56.1970759987
56.1939293311
55.103155752
18.8247883309
9.37925563773
4.75923458386
3.2402046752
2.60182901386
2.34936824595
2.24405846896
2.18950582918
2.14903534218
2.11223622669
2.07717664402
2.0435636949
2.01127847376
1.98026040503
1.95030241605
1.92158354584
1.89395471572
1.86724755642
1.84164320995
1.81701576766
1.79319972433
1.77041843537
1.74841996866
1.72742412206
1.7071903212
1.68794842113
1.6694399625
1.65192294048
1.6351481589
1.61925238353
1.60435600592
1.59022941277
1.5770143663
1.56482596407
1.55341560757
1.54292773436
1.53350018164
1.52487954221
1.51720654489
1.51047592187
1.50467152569
1.49992628655
1.49595534748
1.49289095349
1.49134377779
56.197133795
56.197133795
56.197133795
56.197133795
56.197133795
56.197133795
56.197133795
56.197133795
56.197133795
56.197133795
56.197133795
56.197133795
56.197133795
56.197133795
56.197133795
56.197133795
56.197133795
56.197133795
56.197133795
56.1971337939
56.1971337271
56.1971296677
56.1968919862
56.1861905764
42.5558478059
15.7276578264
7.8889231451
4.20770488385
3.06786496258
2.59379016374
2.40528224993
2.32120476743
2.27123619648
2.2303129005
2.19208015392
2.15554746745
2.12049062072
2.08686755522
2.05460388004
2.0234910633
1.99371677527
1.96510208562
1.93758641723
1.91101080101
1.88558267593
1.86102206862
1.83755105807
1.81503388903
1.79330634389
1.77261643134
1.75271623931
1.73385413033
1.71577347097
1.69859577798
1.68245684853
1.66709578282
1.65279079841
1.63927546409
1.62669851924
1.61504858973
1.60448013888
1.59471514501
1.58592121435
1.57806833249
1.57131200021
1.56535436796
1.56032651046
1.5562114014
1.55300477387
1.55140359549
56.197133795
56.197133795
56.197133795
56.197133795
56.197133795
56.197133795
56.197133795
56.197133795
56.197133795
56.197133795
56.197133795
56.197133795
56.197133795
56.197133795
56.197133795
56.197133795
56.197133795
56.197133795
56.1971337949
56.1971337905
56.1971335255
56.1971180432
56.1962320496
56.1603255525
27.315909416
11.4762752146
6.24195881736
3.7964742692
2.95676864276
2.61163593191
2.47036880335
2.400528697
2.3528016943
2.31076419624
2.27104444094
2.23305945938
2.1966861856
2.16182239377
2.12837899991
2.09630619572
2.06539441815
2.03581672733
2.00742530693
1.98004439618
1.9538753569
1.92875265146
1.90451506393
1.88140049396
1.85912151025
1.83794314517
1.8175710352
1.79828936347
1.77980456542
1.76239756929
1.74577481097
1.73023811429
1.71551433749
1.70175974042
1.68909403356
1.67724826467
1.66634881326
1.65641155299
1.64759472659
1.63958622943
1.63253770246
1.62643021352
1.62140484855
1.61714376365
1.61378622303
1.61212853875
56.197133795
56.197133795
56.197133795
56.197133795
56.197133795
56.197133795
56.197133795
56.197133795
56.197133795
56.197133795
56.197133795
56.197133795
56.197133795
56.197133795
56.197133795
56.197133795
56.197133795
56.197133795
56.1971337947
56.1971337759
56.1971326864
56.1970713403
56.1936974524
54.7131784759
18.7746746704
9.48269615844