/*--------------------------------*- C++ -*----------------------------------*\
| =========                 |                                                 |
| \\      /  F ield         | foam-extend: Open Source CFD                    |
|  \\    /   O peration     | Version:     4.1                                |
|   \\  /    A nd           | Web:         http://www.foam-extend.org         |
|    \\/     M anipulation  |                                                 |
\*---------------------------------------------------------------------------*/
FoamFile
{
    version     2.0;
    format      ascii;
    class       volScalarField;
    location    "0.0003";
    object      mu;
}
// * * * * * * * * * * * * * * * * * * * * * * * * * * * * * * * * * * * * * //

dimensions      [1 -1 -1 0 0 0 0];

internalField   nonuniform List<scalar> 
8400
(
1.68899961489e-05
1.68899961489e-05
1.68899961489e-05
1.68899961489e-05
1.68899961489e-05
1.68899961489e-05
1.68899961489e-05
1.68899961489e-05
1.68899961489e-05
1.68899961489e-05
1.68899961489e-05
1.68899961489e-05
1.68899961489e-05
1.68899961489e-05
1.68899961489e-05
1.68899961489e-05
1.68899961489e-05
1.68899961489e-05
1.68899961489e-05
1.68899961489e-05
1.68899961489e-05
1.68899961489e-05
1.68899961489e-05
1.68899961489e-05
1.6889996149e-05
1.68899961498e-05
1.68899962047e-05
1.68899994896e-05
1.68902015567e-05
1.68933721647e-05
5.15450556883e-05
0.000146498798373
0.000210128796815
0.000105449038473
6.94215513354e-05
5.74631279396e-05
5.38908730561e-05
5.26889956606e-05
5.2234520029e-05
5.19859682234e-05
5.1781685934e-05
5.15848223503e-05
5.13876989027e-05
5.11874362711e-05
5.09842760577e-05
5.07760913227e-05
5.05730441921e-05
5.03511626555e-05
5.01223481088e-05
4.98857116935e-05
4.96407959832e-05
4.93883931653e-05
4.914002754e-05
4.88735881715e-05
4.86016675598e-05
4.83255124229e-05
4.80484101273e-05
4.7771981184e-05
4.75104570737e-05
4.72441333838e-05
4.69863097174e-05
4.67425451429e-05
4.65149103962e-05
4.63067197583e-05
4.61210653872e-05
4.59625422628e-05
4.58323511423e-05
4.57446280553e-05
4.56772914113e-05
4.56118097781e-05
1.68899961488e-05
1.68899961488e-05
1.68899961488e-05
1.68899961488e-05
1.68899961488e-05
1.68899961488e-05
1.68899961488e-05
1.68899961488e-05
1.68899961488e-05
1.68899961488e-05
1.68899961488e-05
1.68899961488e-05
1.68899961488e-05
1.68899961488e-05
1.68899961488e-05
1.68899961488e-05
1.68899961488e-05
1.68899961488e-05
1.68899961488e-05
1.68899961488e-05
1.68899961488e-05
1.68899961488e-05
1.68899961488e-05
1.68899961488e-05
1.68899961489e-05
1.68899961535e-05
1.68899964469e-05
1.68900149119e-05
1.68907338222e-05
1.95737002416e-05
8.83520729605e-05
0.000171078881657
0.000150061520026
8.33994127862e-05
6.14632739942e-05
5.45007456089e-05
5.23916501751e-05
5.17445092469e-05
5.14925958189e-05
5.13279767075e-05
5.11685688229e-05
5.10037514816e-05
5.08321141657e-05
5.06511876236e-05
5.04608875524e-05
5.02616988e-05
5.00527346122e-05
4.98335378772e-05
4.96045474926e-05
4.93669092364e-05
4.91198153055e-05
4.88658398715e-05
4.86051096449e-05
4.83378433393e-05
4.80785304058e-05
4.7805396473e-05
4.75332932103e-05
4.72636141208e-05
4.69999184743e-05
4.67447761734e-05
4.65002820989e-05
4.62697871108e-05
4.60566879866e-05
4.58743604059e-05
4.57038042654e-05
4.5558119794e-05
4.54391547625e-05
4.53484154288e-05
4.52871402206e-05
4.52427150165e-05
1.68899961488e-05
1.68899961488e-05
1.68899961488e-05
1.68899961488e-05
1.68899961488e-05
1.68899961488e-05
1.68899961488e-05
1.68899961488e-05
1.68899961488e-05
1.68899961488e-05
1.68899961488e-05
1.68899961488e-05
1.68899961488e-05
1.68899961488e-05
1.68899961488e-05
1.68899961488e-05
1.68899961488e-05
1.68899961488e-05
1.68899961488e-05
1.68899961488e-05
1.68899961488e-05
1.68899961488e-05
1.68899961488e-05
1.68899961488e-05
1.68899961493e-05
1.68899961788e-05
1.68899980014e-05
1.68901130954e-05
1.68922486158e-05
3.85756163266e-05
0.000137417442926
0.000220721096524
0.000112213523813
7.07753238195e-05
5.71584149871e-05
5.30168891399e-05
5.17813618672e-05
5.13888494093e-05
5.11950959519e-05
5.10479588935e-05
5.09002087486e-05
5.07436640995e-05
5.05773289584e-05
5.04010349474e-05
5.02145084073e-05
5.00175764248e-05
4.98096045754e-05
4.95915030276e-05
4.93637517695e-05
4.91261215779e-05
4.8880805696e-05
4.86281327672e-05
4.83684583645e-05
4.81049934117e-05
4.78382769986e-05
4.75825778912e-05
4.73169393598e-05
4.70558089601e-05
4.68017639578e-05
4.65567458551e-05
4.63236380377e-05
4.61057331922e-05
4.59051034169e-05
4.57233349079e-05
4.5574778549e-05
4.54386757418e-05
4.53280502946e-05
4.52446371277e-05
4.5188590537e-05
4.51493640331e-05
1.68899961488e-05
1.68899961488e-05
1.68899961488e-05
1.68899961488e-05
1.68899961488e-05
1.68899961488e-05
1.68899961488e-05
1.68899961488e-05
1.68899961488e-05
1.68899961488e-05
1.68899961488e-05
1.68899961488e-05
1.68899961488e-05
1.68899961488e-05
1.68899961488e-05
1.68899961488e-05
1.68899961488e-05
1.68899961488e-05
1.68899961488e-05
1.68899961488e-05
1.68899961488e-05
1.68899961488e-05
1.68899961488e-05
1.68899961488e-05
1.68899961506e-05
1.68899962606e-05
1.68900027515e-05
1.68903927714e-05
1.68955528969e-05
7.17016932067e-05
0.000156460563272
0.000181356334786
9.35189633562e-05
6.4601746601e-05
5.53091045193e-05
5.25039307387e-05
5.1683674449e-05
5.13862393889e-05
5.12211917046e-05
5.10697718144e-05
5.09133154716e-05
5.07474224511e-05
5.05713971443e-05
5.03855183092e-05
5.0189590014e-05
4.99836006642e-05
4.97669004741e-05
4.95409399754e-05
4.93058412873e-05
4.90618161912e-05
4.88109761485e-05
4.85537226832e-05
4.82904454514e-05
4.8036063236e-05
4.77681595913e-05
4.75018687223e-05
4.723774366e-05
4.69795844767e-05
4.67292572961e-05
4.64887689476e-05
4.62610710923e-05
4.6059804944e-05
4.58651776262e-05
4.56901445993e-05
4.55364026909e-05
4.54057599336e-05
4.52997347744e-05
4.52198471484e-05
4.51663499303e-05
4.51296652183e-05
1.68899961488e-05
1.68899961488e-05
1.68899961488e-05
1.68899961488e-05
1.68899961488e-05
1.68899961488e-05
1.68899961488e-05
1.68899961488e-05
1.68899961488e-05
1.68899961488e-05
1.68899961488e-05
1.68899961488e-05
1.68899961488e-05
1.68899961488e-05
1.68899961488e-05
1.68899961488e-05
1.68899961488e-05
1.68899961488e-05
1.68899961488e-05
1.68899961488e-05
1.68899961488e-05
1.68899961488e-05
1.68899961488e-05
1.68899961488e-05
1.68899961532e-05
1.68899964365e-05
1.68900143824e-05
1.68907302792e-05
1.95503618006e-05
8.83125031472e-05
0.000171107901365
0.000149971330347
8.33809872142e-05
6.15180889821e-05
5.46173291951e-05
5.25541155631e-05
5.19043548257e-05
5.16458588691e-05
5.14711715733e-05
5.13033703274e-05
5.11290280732e-05
5.09459518412e-05
5.07538037637e-05
5.05517021794e-05
5.03401736117e-05
5.01192984316e-05
4.98889535883e-05
4.96490495652e-05
4.94016912694e-05
4.91461908091e-05
4.8884528446e-05
4.86286057309e-05
4.83575189634e-05
4.8084926088e-05
4.7811702625e-05
4.7540520168e-05
4.72735144447e-05
4.70127510221e-05
4.67610371565e-05
4.65311279348e-05
4.63040100507e-05
4.60923627042e-05
4.58991064501e-05
4.57258531603e-05
4.55743965829e-05
4.54458728928e-05
4.53416885882e-05
4.52627682786e-05
4.52096577474e-05
4.5173766533e-05
1.68899961488e-05
1.68899961488e-05
1.68899961488e-05
1.68899961488e-05
1.68899961488e-05
1.68899961488e-05
1.68899961488e-05
1.68899961488e-05
1.68899961488e-05
1.68899961488e-05
1.68899961488e-05
1.68899961488e-05
1.68899961488e-05
1.68899961488e-05
1.68899961488e-05
1.68899961488e-05
1.68899961488e-05
1.68899961488e-05
1.68899961488e-05
1.68899961488e-05
1.68899961488e-05
1.68899961488e-05
1.68899961488e-05
1.68899961489e-05
1.68899961605e-05
1.68899968693e-05
1.68900409516e-05
1.68911389216e-05
2.51119497886e-05
0.000101976022511
0.000188313531681
0.000130088110733
7.73085582642e-05
5.99215841299e-05
5.45137048185e-05
5.28878862107e-05
5.23487205411e-05
5.20944091356e-05
5.18952712772e-05
5.17017358627e-05
5.1503796772e-05
5.12989446996e-05
5.10850241345e-05
5.08627242336e-05
5.06317323114e-05
5.0391819714e-05
5.01441904e-05
4.98887190589e-05
4.96249084618e-05
4.9366544097e-05
4.9090520813e-05
4.88109904794e-05
4.85286243119e-05
4.82456591625e-05
4.79639715855e-05
4.76844795213e-05
4.74216724109e-05
4.71552892664e-05
4.68982937341e-05
4.66535511444e-05
4.64235444133e-05
4.62098651965e-05
4.6014321925e-05
4.58397426455e-05
4.5687267682e-05
4.55698386558e-05
4.54650466698e-05
4.53857916717e-05
4.5332603215e-05
4.52966370761e-05
1.68899961488e-05
1.68899961488e-05
1.68899961488e-05
1.68899961488e-05
1.68899961488e-05
1.68899961488e-05
1.68899961488e-05
1.68899961488e-05
1.68899961488e-05
1.68899961488e-05
1.68899961488e-05
1.68899961488e-05
1.68899961488e-05
1.68899961488e-05
1.68899961488e-05
1.68899961488e-05
1.68899961488e-05
1.68899961488e-05
1.68899961488e-05
1.68899961488e-05
1.68899961488e-05
1.68899961488e-05
1.68899961488e-05
1.68899961491e-05
1.68899961724e-05
1.68899976067e-05
1.68900892474e-05
1.68919347305e-05
3.51760419802e-05
0.000132861680196
0.000219030178756
0.000117205632343
7.35488396778e-05
5.91742076727e-05
5.47749013266e-05
5.34129444076e-05
5.29345998724e-05
5.26672511052e-05
5.24472909915e-05
5.22292221664e-05
5.20060856094e-05
5.17757218812e-05
5.15388195875e-05
5.12943462443e-05
5.10412749497e-05
5.07805265451e-05
5.05121830128e-05
5.02487198027e-05
4.99674254148e-05
4.96804818211e-05
4.93897614471e-05
4.90955260808e-05
4.87996905483e-05
4.85038863076e-05
4.82218739566e-05
4.7932089046e-05
4.76486805806e-05
4.73739380649e-05
4.71103925765e-05
4.68594478122e-05
4.66234129138e-05
4.64170602149e-05
4.62174231578e-05
4.60394976223e-05
4.588447665e-05
4.57536148524e-05
4.56476293667e-05
4.55672651873e-05
4.55131008238e-05
4.54767400488e-05
1.68899961488e-05
1.68899961488e-05
1.68899961488e-05
1.68899961488e-05
1.68899961488e-05
1.68899961488e-05
1.68899961488e-05
1.68899961488e-05
1.68899961488e-05
1.68899961488e-05
1.68899961488e-05
1.68899961488e-05
1.68899961488e-05
1.68899961488e-05
1.68899961488e-05
1.68899961488e-05
1.68899961488e-05
1.68899961488e-05
1.68899961488e-05
1.68899961488e-05
1.68899961488e-05
1.68899961488e-05
1.68899961488e-05
1.68899961495e-05
1.68899961951e-05
1.68899989623e-05
1.6890171564e-05
1.68930487031e-05
4.77927777902e-05
0.000144570707717
0.000214894272909
0.000108105600427
7.11110688797e-05
5.89224121164e-05
5.52637907688e-05
5.40868697296e-05
5.36385430743e-05
5.33590902756e-05
5.31152483515e-05
5.28703902033e-05
5.26202800544e-05
5.23633859174e-05
5.21007132467e-05
5.18307479632e-05
5.15661905807e-05
5.12823742087e-05
5.09921010854e-05
5.06961572576e-05
5.03943599642e-05
5.00889532992e-05
4.97799478826e-05
4.94693489324e-05
4.91699599111e-05
4.8859158878e-05
4.85527162251e-05
4.82514365837e-05
4.7956723635e-05
4.767239752e-05
4.73991486933e-05
4.71525050178e-05
4.69092178476e-05
4.66850605862e-05
4.64811856488e-05
4.62989112941e-05
4.61397086065e-05
4.60052689187e-05
4.58968933717e-05
4.58147779192e-05
4.57594858474e-05
4.57229054005e-05
1.68899961488e-05
1.68899961488e-05
1.68899961488e-05
1.68899961488e-05
1.68899961488e-05
1.68899961488e-05
1.68899961488e-05
1.68899961488e-05
1.68899961488e-05
1.68899961488e-05
1.68899961488e-05
1.68899961488e-05
1.68899961488e-05
1.68899961488e-05
1.68899961488e-05
1.68899961488e-05
1.68899961488e-05
1.68899961488e-05
1.68899961488e-05
1.68899961488e-05
1.68899961488e-05
1.68899961488e-05
1.68899961488e-05
1.688999615e-05
1.68899962291e-05
1.68900009692e-05
1.68902907113e-05
1.68944513872e-05
6.16804361287e-05
0.000151618456688
0.000198011233259
0.00010162601174
6.95554516129e-05
5.91153494461e-05
5.59511473721e-05
5.48763483534e-05
5.4446660369e-05
5.41596427369e-05
5.38902981591e-05
5.36169117797e-05
5.33377472141e-05
5.30521904952e-05
5.27739875497e-05
5.24768077197e-05
5.21746321705e-05
5.18657561475e-05
5.15523897415e-05
5.12334015004e-05
5.09099694139e-05
5.05837270329e-05
5.02655278218e-05
4.99365350842e-05
4.9607730266e-05
4.92825724672e-05
4.89614419944e-05
4.86459839229e-05
4.83508628291e-05
4.80549372867e-05
4.7771736595e-05
4.75036705153e-05
4.72533518485e-05
4.70221292956e-05
4.68111943183e-05
4.66354331526e-05
4.64716748973e-05
4.63333313101e-05
4.62212188908e-05
4.61369097929e-05
4.60799181156e-05
4.60423816524e-05
1.68899961488e-05
1.68899961488e-05
1.68899961488e-05
1.68899961488e-05
1.68899961488e-05
1.68899961488e-05
1.68899961488e-05
1.68899961488e-05
1.68899961488e-05
1.68899961488e-05
1.68899961488e-05
1.68899961488e-05
1.68899961488e-05
1.68899961488e-05
1.68899961488e-05
1.68899961488e-05
1.68899961488e-05
1.68899961488e-05
1.68899961488e-05
1.68899961488e-05
1.68899961488e-05
1.68899961488e-05
1.68899961488e-05
1.68899961508e-05
1.68899962769e-05
1.68900036899e-05
1.68904441718e-05
1.68961816399e-05
7.51044485502e-05
0.000157871806488
0.000181381635708
9.6742815674e-05
6.87379625666e-05
5.95724329623e-05
5.67506288568e-05
5.58323733102e-05
5.5386819841e-05
5.50704746129e-05
5.47690736694e-05
5.44644446564e-05
5.415378294e-05
5.38497738248e-05
5.3529005503e-05
5.3203251437e-05
5.28733831217e-05
5.25375854746e-05
5.21982696007e-05
5.18538698342e-05
5.15195075622e-05
5.11704267757e-05
5.08201324553e-05
5.04700692796e-05
5.01222918684e-05
4.97787889987e-05
4.94529662475e-05
4.91223734791e-05
4.88024180633e-05
4.84938276319e-05
4.8199336762e-05
4.79215616397e-05
4.76730543052e-05
4.74334587107e-05
4.72159636398e-05
4.70216349614e-05
4.6852726626e-05
4.67105033795e-05
4.65955156709e-05
4.65084329313e-05
4.64495060213e-05
4.6410830857e-05
1.68899961488e-05
1.68899961488e-05
1.68899961488e-05
1.68899961488e-05
1.68899961488e-05
1.68899961488e-05
1.68899961488e-05
1.68899961488e-05
1.68899961488e-05
1.68899961488e-05
1.68899961488e-05
1.68899961488e-05
1.68899961488e-05
1.68899961488e-05
1.68899961488e-05
1.68899961488e-05
1.68899961488e-05
1.68899961488e-05
1.68899961488e-05
1.68899961488e-05
1.68899961488e-05
1.68899961488e-05
1.68899961488e-05
1.68899961519e-05
1.68899963376e-05
1.68900072424e-05
1.68906140816e-05
1.7877611342e-05
8.29893862499e-05
0.000164502683619
0.000167268461648
9.26765611833e-05
6.82425987297e-05
6.03109558873e-05
5.78055109543e-05
5.69152695197e-05
5.64463729531e-05
5.60942720206e-05
5.57541096451e-05
5.54242796159e-05
5.50789058396e-05
5.47287249635e-05
5.43761282788e-05
5.40192650165e-05
5.36585346284e-05
5.3293550949e-05
5.29382281086e-05
5.25670037125e-05
5.21953835011e-05
5.18220825869e-05
5.14491363201e-05
5.10900850003e-05
5.07214498047e-05
5.03588598732e-05
5.00022779255e-05
4.96551896628e-05
4.93197109222e-05
4.90093753127e-05
4.87025430753e-05
4.84127186141e-05
4.81430620725e-05
4.78946222013e-05
4.76685981391e-05
4.74805487425e-05
4.73052341884e-05
4.71579639564e-05
4.7038789848e-05
4.69485183014e-05
4.68873588294e-05
4.68474504434e-05
1.68899961488e-05
1.68899961488e-05
1.68899961488e-05
1.68899961488e-05
1.68899961488e-05
1.68899961488e-05
1.68899961488e-05
1.68899961488e-05
1.68899961488e-05
1.68899961488e-05
1.68899961488e-05
1.68899961488e-05
1.68899961488e-05
1.68899961488e-05
1.68899961488e-05
1.68899961488e-05
1.68899961488e-05
1.68899961488e-05
1.68899961488e-05
1.68899961488e-05
1.68899961488e-05
1.68899961488e-05
1.68899961488e-05
1.68899961539e-05
1.68899964813e-05
1.6890017123e-05
1.6890797828e-05
2.00540199104e-05
8.93884980373e-05
0.000171437967685
0.000154996259676
8.96076196077e-05
6.80640389587e-05
6.12419622895e-05
5.89677371309e-05
5.81098383655e-05
5.76370888801e-05
5.72282413275e-05
5.68569146247e-05
5.64754250849e-05
5.60908674813e-05
5.57040277256e-05
5.53144146511e-05
5.49226480031e-05
5.45397739015e-05
5.41429521259e-05
5.37451196545e-05
5.33464757567e-05
5.29466181577e-05
5.25601792811e-05
5.21618006533e-05
5.17677051942e-05
5.13778138508e-05
5.09948785704e-05
5.06319509361e-05
5.02668403581e-05
4.99141530445e-05
4.95765659015e-05
4.92545429433e-05
4.89650463863e-05
4.86839160143e-05
4.84250659602e-05
4.81907715175e-05
4.79825601266e-05
4.78016148807e-05
4.76490790823e-05
4.75256492127e-05
4.74319656174e-05
4.73682934469e-05
4.73270514377e-05
1.68899961488e-05
1.68899961488e-05
1.68899961488e-05
1.68899961488e-05
1.68899961488e-05
1.68899961488e-05
1.68899961488e-05
1.68899961488e-05
1.68899961488e-05
1.68899961488e-05
1.68899961488e-05
1.68899961488e-05
1.68899961488e-05
1.68899961488e-05
1.68899961488e-05
1.68899961488e-05
1.68899961488e-05
1.68899961488e-05
1.68899961488e-05
1.68899961488e-05
1.68899961488e-05
1.68899961488e-05
1.68899961489e-05
1.68899961583e-05
1.68899967405e-05
1.68900327909e-05
1.68910434457e-05
2.32768979884e-05
9.66553508809e-05
0.000180036809566
0.000144487226375
8.72300597898e-05
6.82830551632e-05
6.23100597751e-05
6.02763998382e-05
5.94376307159e-05
5.89325141818e-05
5.84871887909e-05
5.80559633002e-05
5.76269064944e-05
5.71998590683e-05
5.67720502228e-05
5.63553802146e-05
5.59254068253e-05
5.54946584732e-05
5.50637013151e-05
5.46321346193e-05
5.42135431718e-05
5.3783465225e-05
5.33571309304e-05
5.29327256982e-05
5.25144858771e-05
5.21138782446e-05
5.17078446305e-05
5.13130138195e-05
5.09291204573e-05
5.05720045478e-05
5.02180547739e-05
4.98813721296e-05
4.95657035894e-05
4.92719432355e-05
4.90012800478e-05
4.87696994313e-05
4.85528501983e-05
4.83647313037e-05
4.8206109994e-05
4.80776544743e-05
4.79800315994e-05
4.7913614821e-05
4.78709352074e-05
1.68899961487e-05
1.68899961487e-05
1.68899961487e-05
1.68899961487e-05
1.68899961487e-05
1.68899961487e-05
1.68899961487e-05
1.68899961487e-05
1.68899961487e-05
1.68899961487e-05
1.68899961487e-05
1.68899961487e-05
1.68899961487e-05
1.68899961487e-05
1.68899961487e-05
1.68899961487e-05
1.68899961487e-05
1.68899961487e-05
1.68899961487e-05
1.68899961487e-05
1.68899961488e-05
1.68899961488e-05
1.6889996149e-05
1.68899961652e-05
1.68899971473e-05
1.68900573641e-05
1.68914174908e-05
2.82007530981e-05
0.000111030583553
0.000192406007833
0.000134870525757
8.54187863842e-05
6.87699900492e-05
6.35225418307e-05
6.17038059275e-05
6.08819619601e-05
6.03360868527e-05
5.98378222843e-05
5.93544221847e-05
5.88772515485e-05
5.84027031649e-05
5.79426107139e-05
5.7471821668e-05
5.70014680862e-05
5.65327495601e-05
5.60768483707e-05
5.56093639715e-05
5.51455840871e-05
5.46834479152e-05
5.42386970984e-05
5.37857277074e-05
5.33389400523e-05
5.29016492682e-05
5.24726984247e-05
5.20689812911e-05
5.1664642275e-05
5.12768124438e-05
5.09051234732e-05
5.0566612588e-05
5.02364920099e-05
4.9929525405e-05
4.96476320543e-05
4.93935281739e-05
4.91680005144e-05
4.89719613556e-05
4.88187533554e-05
4.86849691454e-05
4.85832043689e-05
4.85138495378e-05
4.84697204391e-05
1.68899961487e-05
1.68899961487e-05
1.68899961487e-05
1.68899961487e-05
1.68899961487e-05
1.68899961487e-05
1.68899961487e-05
1.68899961487e-05
1.68899961487e-05
1.68899961487e-05
1.68899961487e-05
1.68899961487e-05
1.68899961487e-05
1.68899961487e-05
1.68899961487e-05
1.68899961487e-05
1.68899961487e-05
1.68899961487e-05
1.68899961487e-05
1.68899961487e-05
1.68899961487e-05
1.68899961488e-05
1.68899961492e-05
1.68899961772e-05
1.68899978792e-05
1.68901042919e-05
1.68921767938e-05
3.67213743314e-05
0.000134329942347
0.000216716461034
0.000126740449455
8.38093408131e-05
6.96128353356e-05
6.49456601783e-05
6.32566539353e-05
6.24440905949e-05
6.18482142357e-05
6.12967122249e-05
6.07578651892e-05
6.02395137991e-05
5.97126374365e-05
5.91913893974e-05
5.86740932423e-05
5.81728703908e-05
5.76623747976e-05
5.71542638732e-05
5.66505897763e-05
5.61630033927e-05
5.56679143626e-05
5.51777396163e-05
5.46953902922e-05
5.42336040111e-05
5.37672880205e-05
5.33137056831e-05
5.28722356814e-05
5.24610961137e-05
5.20534403285e-05
5.16635361011e-05
5.12953885696e-05
5.09501266039e-05
5.06428311903e-05
5.03493911091e-05
5.00838011305e-05
4.98487282267e-05
4.96445580103e-05
4.94723258383e-05
4.93331847085e-05
4.92271488518e-05
4.91681848564e-05
4.91220231836e-05
1.68899961487e-05
1.68899961487e-05
1.68899961487e-05
1.68899961487e-05
1.68899961487e-05
1.68899961487e-05
1.68899961487e-05
1.68899961487e-05
1.68899961487e-05
1.68899961487e-05
1.68899961487e-05
1.68899961487e-05
1.68899961487e-05
1.68899961487e-05
1.68899961487e-05
1.68899961487e-05
1.68899961487e-05
1.68899961487e-05
1.68899961487e-05
1.68899961487e-05
1.68899961487e-05
1.68899961488e-05
1.68899961496e-05
1.68899962011e-05
1.68899992894e-05
1.68901888465e-05
1.6893344455e-05
4.9247246695e-05
0.000144710869656
0.000219023536462
0.000119554201888
8.27835096503e-05
7.05098518386e-05
6.6473789284e-05
6.49498270416e-05
6.41253336283e-05
6.34736082316e-05
6.2859018739e-05
6.22733698284e-05
6.16845121209e-05
6.11042043805e-05
6.05306454471e-05
5.99762277905e-05
5.94147309458e-05
5.88581348436e-05
5.83209808365e-05
5.77765651291e-05
5.7238860347e-05
5.67082748019e-05
5.61982295764e-05
5.56829093427e-05
5.51786517657e-05
5.46985818113e-05
5.4218486022e-05
5.37531047212e-05
5.33044157272e-05
5.28887336299e-05
5.24790196242e-05
5.20928143518e-05
5.1731683913e-05
5.13971511536e-05
5.11040651862e-05
5.08277352066e-05
5.05828572107e-05
5.03701806557e-05
5.01907928849e-05
5.00453602379e-05
4.99344504609e-05
4.98585045959e-05
4.98108208017e-05
1.68899961487e-05
1.68899961487e-05
1.68899961487e-05
1.68899961487e-05
1.68899961487e-05
1.68899961487e-05
1.68899961487e-05
1.68899961487e-05
1.68899961487e-05
1.68899961487e-05
1.68899961487e-05
1.68899961487e-05
1.68899961487e-05
1.68899961487e-05
1.68899961487e-05
1.68899961487e-05
1.68899961487e-05
1.68899961487e-05
1.68899961487e-05
1.68899961487e-05
1.68899961487e-05
1.68899961488e-05
1.68899961503e-05
1.68899962456e-05
1.68900018901e-05
1.68903394854e-05
1.68951146523e-05
6.48485653832e-05
0.000152055738779
0.000205269130794
0.000113627165223
8.22778330817e-05
7.17069250596e-05
6.81712883335e-05
6.67519863396e-05
6.59050704441e-05
6.51977120686e-05
6.45347700004e-05
6.38731773849e-05
6.32244146781e-05
6.25991575002e-05
6.19709835918e-05
6.13507127442e-05
6.07520577302e-05
6.01489167053e-05
5.95529212378e-05
5.89652658953e-05
5.83991383603e-05
5.7829583188e-05
5.72700599334e-05
5.67353841255e-05
5.61994560243e-05
5.56765009979e-05
5.51833662106e-05
5.46920662634e-05
5.4219900505e-05
5.37690032381e-05
5.33533838533e-05
5.29489344264e-05
5.25701656406e-05
5.22195710407e-05
5.1899124168e-05
5.16247857827e-05
5.13689474434e-05
5.11471462812e-05
5.09599413046e-05
5.08082466933e-05
5.06929036746e-05
5.06134583988e-05
5.05634255761e-05
1.68899961487e-05
1.68899961487e-05
1.68899961487e-05
1.68899961487e-05
1.68899961487e-05
1.68899961487e-05
1.68899961487e-05
1.68899961487e-05
1.68899961487e-05
1.68899961487e-05
1.68899961487e-05
1.68899961487e-05
1.68899961487e-05
1.68899961487e-05
1.68899961487e-05
1.68899961487e-05
1.68899961487e-05
1.68899961487e-05
1.68899961487e-05
1.68899961487e-05
1.68899961487e-05
1.68899961488e-05
1.68899961516e-05
1.68899963232e-05
1.68900061844e-05
1.68905686786e-05
1.70855737036e-05
7.92268841464e-05
0.000159768037511
0.000187876160556
0.000108711488609
8.20682332507e-05
7.32126176986e-05
7.00646927768e-05
6.86842457808e-05
6.78029428857e-05
6.70449555656e-05
6.63010566225e-05
6.55719523079e-05
6.48706099298e-05
6.41691560929e-05
6.34804976713e-05
6.28181188407e-05
6.215416521e-05
6.15001382188e-05
6.08706804492e-05
6.02386299311e-05
5.96167440126e-05
5.90206973625e-05
5.84234318133e-05
5.78380745637e-05
5.72825192003e-05
5.6728219555e-05
5.61923230675e-05
5.56895309809e-05
5.51928977523e-05
5.47182581578e-05
5.42689556479e-05
5.38594941464e-05
5.34631868494e-05
5.30974684751e-05
5.27635247397e-05
5.24622461108e-05
5.22096847045e-05
5.19783387442e-05
5.17831418188e-05
5.16248518003e-05
5.1503554314e-05
5.14202472083e-05
5.136796089e-05
1.68899961487e-05
1.68899961487e-05
1.68899961487e-05
1.68899961487e-05
1.68899961487e-05
1.68899961487e-05
1.68899961487e-05
1.68899961487e-05
1.68899961487e-05
1.68899961487e-05
1.68899961487e-05
1.68899961487e-05
1.68899961487e-05
1.68899961487e-05
1.68899961487e-05
1.68899961487e-05
1.68899961487e-05
1.68899961487e-05
1.68899961487e-05
1.68899961487e-05
1.68899961487e-05
1.68899961488e-05
1.68899961542e-05
1.68899964935e-05
1.68900174586e-05
1.68908452734e-05
1.99329540757e-05
8.84052326833e-05
0.000168500226894
0.000171229632766
0.000104642665242
8.22352205832e-05
7.48416703516e-05
7.21225886896e-05
7.07721086726e-05
6.98343956658e-05
6.89816261925e-05
6.81615312538e-05
6.73732051455e-05
6.65907214145e-05
6.58386445635e-05
6.50873869956e-05
6.43521233346e-05
6.36444203537e-05
6.29371339764e-05
6.22445962318e-05
6.15791953593e-05
6.09139187477e-05
6.02767609178e-05
5.96401133589e-05
5.90185988178e-05
5.84289212933e-05
5.78419516956e-05
5.72746503619e-05
5.67293870336e-05
5.62205880569e-05
5.57225055339e-05
5.52512492247e-05
5.48225324547e-05
5.44089371283e-05
5.40276600908e-05
5.36792413317e-05
5.33648705924e-05
5.31020355148e-05
5.28609280804e-05
5.2658141013e-05
5.24933252392e-05
5.23672612322e-05
5.22799389924e-05
5.22255698856e-05
1.68899961487e-05
1.68899961487e-05
1.68899961487e-05
1.68899961487e-05
1.68899961487e-05
1.68899961487e-05
1.68899961487e-05
1.68899961487e-05
1.68899961487e-05
1.68899961487e-05
1.68899961487e-05
1.68899961487e-05
1.68899961487e-05
1.68899961487e-05
1.68899961487e-05
1.68899961487e-05
1.68899961487e-05
1.68899961487e-05
1.68899961487e-05
1.68899961487e-05
1.68899961487e-05
1.6889996149e-05
1.68899961618e-05
1.68899969418e-05
1.68900439774e-05
1.68912571618e-05
2.48021701576e-05
9.92795001504e-05
0.00017964136311
0.000156439283652
0.000101438857785
8.28862021942e-05
7.675274697e-05
7.42736076466e-05
7.29622471192e-05
7.19536605912e-05
7.10163406852e-05
7.01264601281e-05
6.92493116528e-05
6.84088698429e-05
6.75744240751e-05
6.67736567793e-05
6.59764935578e-05
6.51964885462e-05
6.44488558204e-05
6.37021910675e-05
6.29877142369e-05
6.2274878868e-05
6.15797570283e-05
6.09176011336e-05
6.02576366281e-05
5.96180645419e-05
5.90136913153e-05
5.84159917795e-05
5.78405082408e-05
5.73066567886e-05
5.67841179746e-05
5.6288671448e-05
5.58245661424e-05
5.54072847842e-05
5.50087188736e-05
5.46460378022e-05
5.43195150067e-05
5.40460905386e-05
5.37950537178e-05
5.35831206339e-05
5.34107352453e-05
5.32792457342e-05
5.31876855228e-05
5.31309830106e-05
1.68899961487e-05
1.68899961487e-05
1.68899961487e-05
1.68899961487e-05
1.68899961487e-05
1.68899961487e-05
1.68899961487e-05
1.68899961487e-05
1.68899961487e-05
1.68899961487e-05
1.68899961487e-05
1.68899961487e-05
1.68899961487e-05
1.68899961487e-05
1.68899961487e-05
1.68899961487e-05
1.68899961487e-05
1.68899961487e-05
1.68899961487e-05
1.68899961487e-05
1.68899961488e-05
1.68899961492e-05
1.68899961779e-05
1.68899978651e-05
1.68900990763e-05
1.68921335971e-05
3.50813931776e-05
0.000130163778884
0.000200369157199
0.000143586029019
9.90426832305e-05
8.39936859109e-05
7.88221859498e-05
7.66094509383e-05
7.52675660232e-05
7.41766741577e-05
7.31630503276e-05
7.21729017246e-05
7.1226897729e-05
7.02939968217e-05
6.93998356472e-05
6.85159734157e-05
6.76710338933e-05
6.68303109065e-05
6.60268725004e-05
6.52261579574e-05
6.44466263061e-05
6.37007228481e-05
6.29593777311e-05
6.22543387373e-05
6.15549407106e-05
6.08766656277e-05
6.0238857858e-05
5.96091968545e-05
5.90064818652e-05
5.84461588411e-05
5.78981597881e-05
5.73804004121e-05
5.68960281794e-05
5.64616717841e-05
5.60460298648e-05
5.5666688208e-05
5.53262947691e-05
5.50410666193e-05
5.47799458755e-05
5.4559918889e-05
5.43807899077e-05
5.42432684427e-05
5.41473194909e-05
5.40873910215e-05
1.68899961487e-05
1.68899961487e-05
1.68899961487e-05
1.68899961487e-05
1.68899961487e-05
1.68899961487e-05
1.68899961487e-05
1.68899961487e-05
1.68899961487e-05
1.68899961487e-05
1.68899961487e-05
1.68899961487e-05
1.68899961487e-05
1.68899961487e-05
1.68899961487e-05
1.68899961487e-05
1.68899961487e-05
1.68899961487e-05
1.68899961487e-05
1.68899961487e-05
1.68899961488e-05
1.68899961499e-05
1.68899962186e-05
1.68900002534e-05
1.68902405183e-05
1.68940597735e-05
5.36871090362e-05
0.000146107130939
0.000221625054742
0.000132717932498
9.7381779822e-05
8.53462356348e-05
8.10590504423e-05
7.90221458998e-05
7.76652382867e-05
7.65005757571e-05
7.53800546736e-05
7.43147852057e-05
7.32688338267e-05
7.22711651262e-05
7.12896385872e-05
7.03491661392e-05
6.94191945486e-05
6.85302545558e-05
6.76506460213e-05
6.68105780827e-05
6.59784344224e-05
6.51848997598e-05
6.4397093632e-05
6.364991234e-05
6.29105294157e-05
6.21958231868e-05
6.15214412467e-05
6.0858885947e-05
6.02249801809e-05
5.96366816838e-05
5.90641471839e-05
5.85237071714e-05
5.80349296832e-05
5.75653595243e-05
5.71331666387e-05
5.6739737463e-05
5.63862096269e-05
5.60896187403e-05
5.58181939894e-05
5.55889365521e-05
5.54026182678e-05
5.52593996912e-05
5.5158409296e-05
5.50959448028e-05
1.68899961487e-05
1.68899961487e-05
1.68899961487e-05
1.68899961487e-05
1.68899961487e-05
1.68899961487e-05
1.68899961487e-05
1.68899961487e-05
1.68899961487e-05
1.68899961487e-05
1.68899961487e-05
1.68899961487e-05
1.68899961487e-05
1.68899961487e-05
1.68899961487e-05
1.68899961487e-05
1.68899961487e-05
1.68899961487e-05
1.68899961487e-05
1.68899961487e-05
1.68899961488e-05
1.68899961516e-05
1.68899963198e-05
1.68900059386e-05
1.68905505965e-05
1.68975554988e-05
7.70159618817e-05
0.000156846514517
0.000204704814934
0.00012481475616
9.66112225263e-05
8.71243800141e-05
8.34850643374e-05
8.15749278387e-05
8.01689924205e-05
7.88934834319e-05
7.76906128823e-05
7.65179939244e-05
7.54001926214e-05
7.43203673889e-05
7.32583330644e-05
7.22449973518e-05
7.1247434251e-05
7.02942658336e-05
6.93529052223e-05
6.84549914107e-05
6.75668203298e-05
6.67225472105e-05
6.58892155127e-05
6.50985928062e-05
6.43183188676e-05
6.35646106451e-05
6.28568845691e-05
6.21617850501e-05
6.14976827946e-05
6.08817159802e-05
6.02828862611e-05
5.97192052931e-05
5.92089524952e-05
5.87197112556e-05
5.82705147667e-05
5.78624253112e-05
5.75131835604e-05
5.7188577503e-05
5.69067226211e-05
5.6669204636e-05
5.64752131678e-05
5.6325314381e-05
5.62369553539e-05
5.61714024794e-05
1.68899961487e-05
1.68899961487e-05
1.68899961487e-05
1.68899961487e-05
1.68899961487e-05
1.68899961487e-05
1.68899961487e-05
1.68899961487e-05
1.68899961487e-05
1.68899961487e-05
1.68899961487e-05
1.68899961487e-05
1.68899961487e-05
1.68899961487e-05
1.68899961487e-05