/*--------------------------------*- C++ -*----------------------------------*\
| =========                 |                                                 |
| \\      /  F ield         | foam-extend: Open Source CFD                    |
|  \\    /   O peration     | Version:     4.1                                |
|   \\  /    A nd           | Web:         http://www.foam-extend.org         |
|    \\/     M anipulation  |                                                 |
\*---------------------------------------------------------------------------*/
FoamFile
{
    version     2.0;
    format      ascii;
    class       volScalarField;
    location    "0.0003";
    object      N;
}
// * * * * * * * * * * * * * * * * * * * * * * * * * * * * * * * * * * * * * //

dimensions      [0 0 0 0 0 0 0];

internalField   nonuniform List<scalar> 
8400
(
7.71492890077e-105
7.71492890081e-105
7.71492890086e-105
7.71492890091e-105
7.71492890095e-105
7.714928901e-105
7.71492890104e-105
7.71492890108e-105
7.71492890113e-105
7.71492890117e-105
7.71492890121e-105
7.71492890125e-105
7.71492890129e-105
7.71492890133e-105
7.71492890137e-105
7.7149289014e-105
7.71492890144e-105
7.71492890148e-105
7.71492890151e-105
7.71492890155e-105
7.71492890158e-105
7.71492890161e-105
7.71492890165e-105
7.7149289017e-105
7.71492890303e-105
7.71492898528e-105
7.71493419216e-105
7.71524560722e-105
7.73440252751e-105
8.03499110319e-105
2.03061536279e-16
0.124947025454
0.712275110877
0.458553811615
0.303955000515
0.234959715857
0.208626422285
0.198772244263
0.195385461155
0.193934970153
0.192920172824
0.191983541021
0.191050081905
0.190097583062
0.189127844491
0.188129559954
0.18715465697
0.186081900998
0.184972192147
0.183818668729
0.182620940628
0.181380828546
0.180158795295
0.178839948549
0.17748898586
0.176110887341
0.174723100159
0.173333627136
0.172019445977
0.17067364811
0.169366534626
0.168126366367
0.166963270599
0.165895380897
0.164939854093
0.164121616364
0.163448325604
0.162994469184
0.162641836356
0.162169052148
7.71492889144e-105
7.71492889146e-105
7.71492889147e-105
7.71492889149e-105
7.71492889151e-105
7.71492889153e-105
7.71492889155e-105
7.71492889156e-105
7.71492889158e-105
7.7149288916e-105
7.71492889161e-105
7.71492889163e-105
7.71492889165e-105
7.71492889166e-105
7.71492889168e-105
7.71492889169e-105
7.71492889171e-105
7.71492889172e-105
7.71492889174e-105
7.71492889175e-105
7.71492889177e-105
7.71492889178e-105
7.7149288918e-105
7.71492889192e-105
7.7149288986e-105
7.71492933245e-105
7.71495714484e-105
7.71670771995e-105
7.7848638038e-105
1.64890448453e-38
5.63241144701e-06
0.476676154234
0.589308397071
0.371418876268
0.261104624477
0.215684573264
0.198672317234
0.193053375503
0.191177110329
0.19020531365
0.189354178074
0.188494683051
0.187605011998
0.186671252065
0.185692621998
0.184669976151
0.183599399422
0.182478059182
0.181307629035
0.180093789427
0.178831981011
0.177533281884
0.176199092247
0.174830190231
0.173500896384
0.172097315678
0.170698696909
0.169311217184
0.167951958263
0.166634256938
0.165368569654
0.164171846428
0.16306181972
0.162112128914
0.161220786568
0.160459483694
0.159835252985
0.1593576989
0.159032912985
0.158703891877
7.71492888806e-105
7.71492888807e-105
7.71492888808e-105
7.71492888809e-105
7.7149288881e-105
7.71492888811e-105
7.71492888812e-105
7.71492888813e-105
7.71492888814e-105
7.71492888815e-105
7.71492888816e-105
7.71492888817e-105
7.71492888818e-105
7.71492888819e-105
7.7149288882e-105
7.71492888821e-105
7.71492888822e-105
7.71492888823e-105
7.71492888824e-105
7.71492888825e-105
7.71492888826e-105
7.71492888826e-105
7.71492888828e-105
7.71492888896e-105
7.71492893221e-105
7.71493173593e-105
7.71510451968e-105
7.72601597364e-105
7.92847337458e-105
3.79416394213e-23
0.0490633419959
0.742034974561
0.482447442221
0.31199836822
0.234945051587
0.204863074497
0.194200778313
0.190860002137
0.189555974124
0.188720980095
0.187928280385
0.18710302912
0.186233286346
0.185316572397
0.184351394887
0.183336274178
0.182266955061
0.181148332741
0.179982534468
0.178767621182
0.177512392956
0.176218607612
0.174889022057
0.173538176491
0.172168657136
0.170856644622
0.169490726016
0.168146162995
0.166835643241
0.165569776263
0.164363335642
0.163233078055
0.162189415631
0.161240031898
0.160465005752
0.15975137695
0.15917244017
0.158735021839
0.158440098776
0.158159803794
7.71492888641e-105
7.71492888641e-105
7.71492888642e-105
7.71492888643e-105
7.71492888644e-105
7.71492888645e-105
7.71492888645e-105
7.71492888646e-105
7.71492888647e-105
7.71492888647e-105
7.71492888648e-105
7.71492888649e-105
7.7149288865e-105
7.7149288865e-105
7.71492888651e-105
7.71492888652e-105
7.71492888652e-105
7.71492888653e-105
7.71492888653e-105
7.71492888654e-105
7.71492888655e-105
7.71492888655e-105
7.7149288866e-105
7.71492888925e-105
7.71492905587e-105
7.71493948634e-105
7.71555485427e-105
7.75253057818e-105
8.24173479416e-105
7.19266220619e-09
0.258462549512
0.658306598098
0.414042535668
0.279269897492
0.222068912099
0.200298024884
0.193058910034
0.190720835739
0.189691792155
0.188862406872
0.188034070446
0.187166502062
0.186252021066
0.185291439238
0.184283234587
0.183226626031
0.18211714317
0.180962692313
0.179763581738
0.17851991863
0.177240626158
0.175927910883
0.174583536386
0.17328407652
0.171912837409
0.170549733728
0.169195531901
0.167868329933
0.16657860239
0.165337505992
0.16415989681
0.163119559017
0.162109306461
0.161198752502
0.160397258482
0.159713964504
0.159160000265
0.158742576179
0.1584626538
0.158205994004
7.71492888546e-105
7.71492888547e-105
7.71492888548e-105
7.71492888548e-105
7.71492888549e-105
7.71492888549e-105
7.7149288855e-105
7.71492888551e-105
7.71492888551e-105
7.71492888552e-105
7.71492888552e-105
7.71492888553e-105
7.71492888553e-105
7.71492888554e-105
7.71492888554e-105
7.71492888555e-105
7.71492888555e-105
7.71492888556e-105
7.71492888556e-105
7.71492888557e-105
7.71492888557e-105
7.71492888558e-105
7.71492888568e-105
7.71492889206e-105
7.71492930778e-105
7.71495615888e-105
7.71665752344e-105
7.78452790658e-105
1.63473929508e-38
5.55964503107e-06
0.477027662666
0.58902716818
0.371207663808
0.261179410058
0.216085535394
0.199396643903
0.193866945059
0.192007386408
0.190996615664
0.190103979606
0.189195645637
0.1882498417
0.187262370115
0.186227439659
0.185147559101
0.18402274177
0.182851995129
0.18163344191
0.180377857594
0.179081708491
0.177752570453
0.176453210455
0.175074276793
0.173686176817
0.172292298086
0.170907502442
0.169542346444
0.168205337097
0.166909882469
0.165727391416
0.164555721518
0.163461739016
0.162461486522
0.161563260325
0.160775594694
0.160106645037
0.159563490162
0.159152202213
0.158874854127
0.158626023112
7.71492888487e-105
7.71492888487e-105
7.71492888488e-105
7.71492888488e-105
7.71492888489e-105
7.71492888489e-105
7.7149288849e-105
7.7149288849e-105
7.7149288849e-105
7.71492888491e-105
7.71492888491e-105
7.71492888492e-105
7.71492888492e-105
7.71492888493e-105
7.71492888493e-105
7.71492888493e-105
7.71492888494e-105
7.71492888494e-105
7.71492888495e-105
7.71492888495e-105
7.71492888495e-105
7.71492888496e-105
7.71492888523e-105
7.7149289022e-105
7.7149299961e-105
7.71499719666e-105
7.71917640363e-105
7.82326913397e-105
4.92614908352e-38
0.000140878423276
0.669009852538
0.536849338207
0.343107069225
0.250775064092
0.213796982514
0.200368567303
0.195954915405
0.194286440585
0.193196335215
0.192191286594
0.191176210614
0.190130615491
0.189042258954
0.187915001332
0.186746601705
0.185535011461
0.184286099285
0.182997619325
0.181665705668
0.180362577612
0.17896812573
0.177554708814
0.176124915951
0.174690621043
0.173259625646
0.171835488157
0.170496381689
0.169134925375
0.167818521744
0.166562104229
0.165378899564
0.16427773208
0.163266201076
0.162362445875
0.161572481264
0.160965310292
0.160421032061
0.16000911711
0.159730999799
0.159483745387
7.71492888446e-105
7.71492888446e-105
7.71492888446e-105
7.71492888447e-105
7.71492888447e-105
7.71492888448e-105
7.71492888448e-105
7.71492888448e-105
7.71492888449e-105
7.71492888449e-105
7.7149288845e-105
7.7149288845e-105
7.7149288845e-105
7.71492888451e-105
7.71492888451e-105
7.71492888451e-105
7.71492888452e-105
7.71492888452e-105
7.71492888452e-105
7.71492888453e-105
7.71492888453e-105
7.71492888454e-105
7.71492888508e-105
7.7149289195e-105
7.71493112917e-105
7.71506710371e-105
7.72375507459e-105
7.89871556641e-105
1.97681631887e-23
0.027605517917
0.749885755376
0.498153514158
0.324389428707
0.244967517404
0.213805954849
0.202549964046
0.198830564155
0.197205910453
0.196043020062
0.194931601578
0.193803867128
0.192643398661
0.191452592291
0.190226258898
0.188957882491
0.187651538545
0.186306634985
0.184988666942
0.183579234515
0.182140023714
0.180679831341
0.179200013283
0.177709596112
0.17621519046
0.174790389135
0.173321371891
0.171881920305
0.170483539734
0.169139125362
0.167855818444
0.166644688181
0.165585471784
0.164557647693
0.163640667646
0.162840973133
0.162164826257
0.161616987912
0.161200940406
0.160919666108
0.160674876161
7.71492888416e-105
7.71492888416e-105
7.71492888417e-105
7.71492888417e-105
7.71492888417e-105
7.71492888418e-105
7.71492888418e-105
7.71492888418e-105
7.71492888419e-105
7.71492888419e-105
7.71492888419e-105
7.7149288842e-105
7.7149288842e-105
7.7149288842e-105
7.71492888421e-105
7.71492888421e-105
7.71492888421e-105
7.71492888421e-105
7.71492888422e-105
7.71492888422e-105
7.71492888422e-105
7.71492888424e-105
7.71492888528e-105
7.71492895243e-105
7.71493327419e-105
7.71519562514e-105
7.73155907588e-105
8.00432541705e-105
1.112724067e-16
0.104214938341
0.722400575129
0.46749621616
0.311475017856
0.241911509931
0.215243543107
0.20560840101
0.202329380225
0.200726173633
0.199472353997
0.198244689481
0.196997506217
0.195718903619
0.194413618923
0.193072803259
0.191760587517
0.190351634901
0.188909831836
0.187438581034
0.185936866101
0.184415252983
0.182873246107
0.181319425032
0.179820590277
0.178259911119
0.176717974921
0.175198163081
0.173708006639
0.172267103071
0.170879156624
0.169625727955
0.168384289716
0.167239137637
0.166195194035
0.165260192781
0.164441610989
0.163749744715
0.163191396085
0.162768858161
0.162484591777
0.162242972088
7.71492888393e-105
7.71492888394e-105
7.71492888394e-105
7.71492888394e-105
7.71492888394e-105
7.71492888395e-105
7.71492888395e-105
7.71492888395e-105
7.71492888396e-105
7.71492888396e-105
7.71492888396e-105
7.71492888397e-105
7.71492888397e-105
7.71492888397e-105
7.71492888397e-105
7.71492888398e-105
7.71492888398e-105
7.71492888398e-105
7.71492888398e-105
7.71492888399e-105
7.71492888399e-105
7.71492888402e-105
7.71492888587e-105
7.71492900376e-105
7.71493649944e-105
7.71538588887e-105
7.74285479846e-105
8.13730648082e-105
6.37633206823e-11
0.188787277603
0.689389335801
0.443737571823
0.302492433579
0.241246743307
0.217841940075
0.209311178159
0.206351380039
0.204777818005
0.203425858716
0.202076908476
0.200703858372
0.19929997849
0.197934905571
0.196474980084
0.194990437643
0.193471204387
0.191927858364
0.190354693551
0.188756820583
0.18714139028
0.185565814112
0.183930949179
0.18229525141
0.180672919922
0.179066650839
0.17748362807
0.1760010073
0.174508820306
0.173078669599
0.171722619169
0.170453572143
0.169278666183
0.168203512907
0.167308564021
0.166471651945
0.165763932363
0.165190762686
0.164759114927
0.164467655741
0.164224110237
7.71492888375e-105
7.71492888376e-105
7.71492888376e-105
7.71492888376e-105
7.71492888377e-105
7.71492888377e-105
7.71492888377e-105
7.71492888377e-105
7.71492888378e-105
7.71492888378e-105
7.71492888378e-105
7.71492888379e-105
7.71492888379e-105
7.71492888379e-105
7.71492888379e-105
7.7149288838e-105
7.7149288838e-105
7.7149288838e-105
7.7149288838e-105
7.7149288838e-105
7.71492888381e-105
7.71492888386e-105
7.71492888691e-105
7.7149290784e-105
7.71494102877e-105
7.71564382085e-105
7.75740358364e-105
8.30134259667e-105
4.34409389253e-08
0.278797452773
0.657690952571
0.424561144877
0.296874561153
0.242029777202
0.221105062079
0.213865169017
0.211019576938
0.209358999844
0.207876922453
0.206396649404
0.204888723904
0.203415362692
0.201858816592
0.200277110894
0.19867335958
0.197037577311
0.195381651141
0.19369728606
0.192060237059
0.190346095634
0.188622268363
0.186895026272
0.185175526802
0.183471709274
0.181855718323
0.180207519691
0.178608816583
0.177063071378
0.175584921861
0.174187109862
0.172937295224
0.171727160133
0.1706263084
0.169640388
0.168783098073
0.168060860864
0.167476744188
0.167034244566
0.166735534604
0.166489927454
7.71492888361e-105
7.71492888361e-105
7.71492888362e-105
7.71492888362e-105
7.71492888362e-105
7.71492888362e-105
7.71492888363e-105
7.71492888363e-105
7.71492888363e-105
7.71492888363e-105
7.71492888364e-105
7.71492888364e-105
7.71492888364e-105
7.71492888364e-105
7.71492888365e-105
7.71492888365e-105
7.71492888365e-105
7.71492888365e-105
7.71492888366e-105
7.71492888366e-105
7.71492888366e-105
7.71492888374e-105
7.71492888844e-105
7.71492917779e-105
7.71494679006e-105
7.71598061786e-105
7.77351183342e-105
6.08980383886e-39
1.04487562405e-06
0.378499568128
0.62817692578
0.407741828731
0.292773767444
0.244274402073
0.225678537208
0.219040899596
0.216247461905
0.214469721648
0.21282905374
0.21125107918
0.2095971924
0.207919735869
0.206230130925
0.204517187588
0.202782402809
0.201022064628
0.199306013898
0.197506911546
0.195702356451
0.193885239547
0.192064605098
0.190308239679
0.188498444482
0.18671450599
0.184955188835
0.18323796268
0.181572037366
0.180030894908
0.178501116468
0.177053656052
0.175704347412
0.174458285338
0.173320593542
0.172375367444
0.171490721392
0.170747552108
0.170146526693
0.16969116294
0.169383663283
0.169135141323
7.71492888349e-105
7.7149288835e-105
7.7149288835e-105
7.7149288835e-105
7.7149288835e-105
7.71492888351e-105
7.71492888351e-105
7.71492888351e-105
7.71492888351e-105
7.71492888352e-105
7.71492888352e-105
7.71492888352e-105
7.71492888352e-105
7.71492888352e-105
7.71492888353e-105
7.71492888353e-105
7.71492888353e-105
7.71492888353e-105
7.71492888353e-105
7.71492888354e-105
7.71492888354e-105
7.71492888366e-105
7.71492889107e-105
7.71492937381e-105
7.71496040796e-105
7.71691734209e-105
7.79093185798e-105
1.93658794929e-38
7.52336874357e-06
0.480162964344
0.59986874935
0.394180083483
0.290148448574
0.247502608014
0.230798004281
0.224740257046
0.222075732986
0.220076556829
0.218321042852
0.216522672224
0.214708689101
0.212880498882
0.21103597724
0.209175328948
0.207355121624
0.205462125197
0.20355989162
0.201647648955
0.199723587908
0.197861104037
0.195932166521
0.194019673084
0.192122093964
0.190252621456
0.188476867651
0.186682872806
0.184946099068
0.183280186235
0.181685142494
0.180250331231
0.178852181191
0.177562845023
0.176393793743
0.175352956373
0.174446802511
0.173682275076
0.173064418369
0.172596420799
0.172279406124
0.172028884311
7.7149288834e-105
7.7149288834e-105
7.7149288834e-105
7.7149288834e-105
7.71492888341e-105
7.71492888341e-105
7.71492888341e-105
7.71492888341e-105
7.71492888341e-105
7.71492888342e-105
7.71492888342e-105
7.71492888342e-105
7.71492888342e-105
7.71492888342e-105
7.71492888343e-105
7.71492888343e-105
7.71492888343e-105
7.71492888343e-105
7.71492888343e-105
7.71492888343e-105
7.71492888344e-105
7.71492888365e-105
7.71492889733e-105
7.71492978659e-105
7.71498498411e-105
7.71840273531e-105
7.81421756892e-105
3.85065234942e-38
4.41190782287e-05
0.590217468867
0.573323087479
0.382953124283
0.289334046
0.251419235112
0.236621784441
0.231042782309
0.22835821076
0.226242247472
0.224238403935
0.222246378922
0.220260277477
0.218264809671
0.216318385585
0.21430194508
0.212276366034
0.210243214017
0.208199840508
0.206214666208
0.204165339223
0.202128578721
0.200094220554
0.198081437374
0.196151619783
0.194185985185
0.192268109765
0.190397169465
0.188654695251
0.186921099328
0.185266587602
0.183711774918
0.182260873573
0.180920735569
0.179775623289
0.178698612108
0.177764408998
0.176976733969
0.176339097398
0.175855721793
0.175528943039
0.175276254304
7.71492888331e-105
7.71492888331e-105
7.71492888332e-105
7.71492888332e-105
7.71492888332e-105
7.71492888332e-105
7.71492888333e-105
7.71492888333e-105
7.71492888333e-105
7.71492888333e-105
7.71492888333e-105
7.71492888333e-105
7.71492888334e-105
7.71492888334e-105
7.71492888334e-105
7.71492888334e-105
7.71492888334e-105
7.71492888335e-105
7.71492888335e-105
7.71492888335e-105
7.71492888336e-105
7.71492888373e-105
7.71492890791e-105
7.7149304461e-105
7.71502355071e-105
7.72073238853e-105
7.84967880495e-105
6.66750418367e-38
0.000900427261928
0.694093095074
0.547833658935
0.373706279309
0.289726178634
0.256029309515
0.242992188721
0.23785395508
0.235099887656
0.23279083014
0.230580852819
0.228399650014
0.22622277233
0.224109384097
0.221937105312
0.219759708968
0.217581840174
0.215457472192
0.213269581347
0.211091554616
0.208912928229
0.206810582093
0.204659146619
0.202530912126
0.200440389199
0.198382509549
0.196441053305
0.194488405904
0.192610441378
0.190803064218
0.189155152995
0.187540779636
0.186036626544
0.184652867892
0.183403823433
0.182293873456
0.181326604178
0.180574526054
0.179915084086
0.179416142548
0.179078310341
0.178822768505
7.71492888324e-105
7.71492888324e-105
7.71492888325e-105
7.71492888325e-105
7.71492888325e-105
7.71492888325e-105
7.71492888325e-105
7.71492888325e-105
7.71492888326e-105
7.71492888326e-105
7.71492888326e-105
7.71492888326e-105
7.71492888326e-105
7.71492888327e-105
7.71492888327e-105
7.71492888327e-105
7.71492888327e-105
7.71492888327e-105
7.71492888327e-105
7.71492888328e-105
7.71492888329e-105
7.71492888395e-105
7.7149289259e-105
7.71493158411e-105
7.71509294236e-105
7.72518136442e-105
7.9216643151e-105
2.79254527938e-23
0.0332817752687
0.751017647253
0.524301239792
0.36510435933
0.291694786483
0.261613678508
0.249920576252
0.245158153304
0.2422858253
0.23978706121
0.237364715291
0.235032722413
0.232652068571
0.230288053607
0.227932651777
0.225643609696
0.223301243555
0.220960532054
0.218630495041
0.216368366486
0.214060469275
0.211766372252
0.20949938811
0.207322846396
0.20511383477
0.202957339642
0.200851103376
0.198887008505
0.196930819036
0.195052330251
0.193271331365
0.191594876237
0.190104115717
0.188676769505
0.187383364089
0.186235326266
0.185236506685
0.184394348445
0.183715348339
0.183200043683
0.182920326946
0.182659687132
7.71492888318e-105
7.71492888318e-105
7.71492888318e-105
7.71492888318e-105
7.71492888319e-105
7.71492888319e-105
7.71492888319e-105
7.71492888319e-105
7.71492888319e-105
7.7149288832e-105
7.7149288832e-105
7.7149288832e-105
7.7149288832e-105
7.7149288832e-105
7.7149288832e-105
7.7149288832e-105
7.71492888321e-105
7.71492888321e-105
7.71492888321e-105
7.71492888321e-105
7.71492888323e-105
7.71492888444e-105
7.71492896144e-105
7.7149338418e-105
7.71522663169e-105
7.73319754053e-105
8.03236409605e-105
1.45852379208e-16
0.105031714988
0.731647447755
0.501496848218
0.358656775448
0.29390158987
0.267669103098
0.257451604005
0.252939491843
0.249922726693
0.247194938356
0.244608068499
0.241996425037
0.239413122296
0.236848726563
0.234361173968
0.23182806392
0.229305192492
0.226862730113
0.224375256955
0.221907783828
0.219461628295
0.217103500388
0.214707701436
0.212354303789
0.210105429782
0.207846549204
0.205647449732
0.203519345997
0.201544695827
0.199587356006
0.197737137388
0.196000876141
0.194387810786
0.192975839917
0.191639387191
0.190455035483
0.189425084893
0.188556506717
0.187852776354
0.187318955535
0.186957037467
0.18669575418
7.71492888312e-105
7.71492888313e-105
7.71492888313e-105
7.71492888313e-105
7.71492888313e-105
7.71492888313e-105
7.71492888313e-105
7.71492888314e-105
7.71492888314e-105
7.71492888314e-105
7.71492888314e-105
7.71492888314e-105
7.71492888314e-105
7.71492888315e-105
7.71492888315e-105
7.71492888315e-105
7.71492888315e-105
7.71492888315e-105
7.71492888315e-105
7.71492888316e-105
7.71492888319e-105
7.71492888547e-105
7.71492902945e-105
7.71493806807e-105
7.71547319392e-105
7.74747881682e-105
8.20018713741e-105
1.92963169653e-10
0.193383559166
0.701445772667
0.481094439682
0.354157852121
0.297394688307
0.274468712534
0.265420736796
0.261085536229
0.257923245476
0.255041612239
0.252166247025
0.24933500991
0.246595938367
0.243829481577
0.241082759828
0.238420783861
0.2357236121
0.23304547958
0.230391276007
0.227826523309
0.225231364435
0.222669511622
0.220214394499
0.217740532445
0.215314956244
0.213020390907
0.210722354957
0.208505182544
0.206379314591
0.204416721739
0.2024960373
0.200691793042
0.199017111775
0.197482862713
0.196170375244
0.194942322428
0.193879000522
0.192981285723
0.192255776325
0.19170594684
0.191331031746
0.191063485251
7.71492888308e-105
7.71492888308e-105
7.71492888308e-105
7.71492888308e-105
7.71492888308e-105
7.71492888308e-105
7.71492888309e-105
7.71492888309e-105
7.71492888309e-105
7.71492888309e-105
7.71492888309e-105
7.71492888309e-105
7.7149288831e-105
7.7149288831e-105
7.7149288831e-105
7.7149288831e-105
7.7149288831e-105
7.7149288831e-105
7.7149288831e-105
7.71492888311e-105
7.71492888318e-105
7.7149288875e-105
7.71492915415e-105
7.71494541864e-105
7.71588031431e-105
7.76920741033e-105
1.17169142395e-39
2.46864915248e-07
0.30505425921
0.668463665166
0.462824917518
0.350796143345
0.302198818403
0.282107194925
0.273900607807
0.26966703843
0.266381803523
0.263211261428
0.260096445143
0.257087141804
0.254058343311
0.251069284325
0.248180770783
0.245266791722
0.242380360594
0.239592200766
0.236775440108
0.233989031577
0.231309118535
0.228606912768
0.225944734551
0.223410361262
0.22086643095
0.218396457101
0.216071966381
0.213764356066
0.211550252053
0.209445206121
0.207523181549
0.205653809502
0.20392435867
0.20234093594
0.200908471459
0.199709926143
0.198609745452
0.197683688214
0.196934023629
0.196362874063
0.19597422488
0.195702337996
7.71492888303e-105
7.71492888304e-105
7.71492888304e-105
7.71492888304e-105
7.71492888304e-105
7.71492888304e-105
7.71492888304e-105
7.71492888304e-105
7.71492888305e-105
7.71492888305e-105
7.71492888305e-105
7.71492888305e-105
7.71492888305e-105
7.71492888305e-105
7.71492888305e-105
7.71492888306e-105
7.71492888306e-105
7.71492888306e-105
7.71492888306e-105
7.71492888306e-105
7.71492888319e-105
7.71492889128e-105
7.71492940135e-105
7.71496157108e-105
7.71694916149e-105
7.79542990547e-105
1.85771833883e-38
5.7133332927e-06
0.433966937461
0.634079227451
0.446502353819
0.348915217771
0.307517875325
0.290418845238
0.282971276756
0.278726606395
0.275133749913
0.271705831997
0.268399019892
0.265093909564
0.261901170148
0.258689688672
0.255526337525
0.252466573925
0.249388153118
0.246357508689
0.243433805387
0.240491523766
0.237662043381
0.23481646595
0.232024278816
0.229364420191
0.226700306775
0.224113766727
0.221616084047
0.219278846779
0.21697832953
0.214792748174
0.212800349265
0.210869783003
0.209085658665
0.207449724435
0.205969432082
0.204735619406
0.203599499263
0.202647115467
0.201875373137
0.201287790219
0.200885882089
0.200612309345
7.714928883e-105
7.714928883e-105
7.714928883e-105
7.714928883e-105
7.714928883e-105
7.714928883e-105
7.714928883e-105
7.71492888301e-105
7.71492888301e-105
7.71492888301e-105
7.71492888301e-105
7.71492888301e-105
7.71492888301e-105
7.71492888301e-105
7.71492888302e-105
7.71492888302e-105
7.71492888302e-105
7.71492888302e-105
7.71492888302e-105
7.71492888303e-105
7.71492888333e-105
7.71492890255e-105
7.71493012377e-105
7.71500406904e-105
7.71946326878e-105
7.83447885911e-105
4.71158072902e-38
7.76906325728e-05
0.582162994165
0.599760003399
0.432482405038
0.348918922412
0.314017499684
0.299088505615
0.292384318656
0.28804685255
0.28419720931
0.28055130032
0.276934683114
0.273449040497
0.269960617476
0.266593321261
0.263217476466
0.259891483357
0.256687808757
0.253464318399
0.250364851491
0.24725272913
0.244200687262
0.241281773184
0.238351920193
0.235497049519
0.232789136979
0.230094948882
0.227487545806
0.225061602361
0.222672947014
0.220398459297
0.21825943248
0.216334584655
0.214487572127
0.21280340792
0.211283335047
0.210013060141
0.208843907248
0.207858543827
0.207059721689
0.206453889554
0.206038339887
0.205761648935
7.71492888296e-105
7.71492888296e-105
7.71492888296e-105
7.71492888297e-105
7.71492888297e-105
7.71492888297e-105
7.71492888297e-105
7.71492888297e-105
7.71492888297e-105
7.71492888297e-105
7.71492888297e-105
7.71492888298e-105
7.71492888298e-105
7.71492888298e-105
7.71492888298e-105
7.71492888298e-105
7.71492888298e-105
7.71492888298e-105
7.71492888298e-105
7.714928883e-105
7.71492888371e-105
7.71492892794e-105
7.71493165147e-105
7.71509160569e-105
7.72468689572e-105
7.9175690646e-105
1.8998925167e-23
0.0188997580135
0.726733722185
0.567052167236
0.420823266835
0.350724210223
0.321181785414
0.308485580856
0.302170606935
0.297679256266
0.293618693612
0.289637278125
0.285810298067
0.282002183719
0.278329391785
0.274670190745
0.271151079968
0.267621001444
0.26422831803
0.260821949245
0.257484367043
0.254274354292
0.251060248151
0.247988899529
0.24492212802
0.241929334457
0.239105046926
0.236299334022
0.233600617382
0.231082313959
0.228603934317
0.226253032078
0.224044262464
0.222062448102
0.220156881116
0.218414150575
0.216846291338
0.215535679036
0.214332441313
0.213321052595
0.212500888753
0.211875260137
0.211445238648
0.211160864114
7.71492888293e-105
7.71492888293e-105
7.71492888293e-105
7.71492888293e-105
7.71492888294e-105
7.71492888294e-105
7.71492888294e-105
7.71492888294e-105
7.71492888294e-105
7.71492888294e-105
7.71492888294e-105
7.71492888294e-105
7.71492888295e-105
7.71492888295e-105
7.71492888295e-105
7.71492888295e-105
7.71492888295e-105
7.71492888295e-105
7.71492888295e-105
7.71492888298e-105
7.71492888468e-105
7.71492898994e-105
7.71493550149e-105
7.71531802279e-105
7.73809626798e-105
8.10017966066e-105
2.06336701711e-13
0.118824557746
0.738851054592
0.536353186031
0.411481027565
0.353535501675
0.329057701272
0.318142622122
0.312213065077
0.307594695737
0.303202975006
0.299006709363
0.294849675721
0.290855154407
0.286889913132
0.283063574898
0.279247090203
0.275575672244
0.271911598026
0.26839355232
0.26488088207
0.261513261893
0.258144261376
0.254932311519
0.25173034123
0.248615135078
0.245663570795
0.242745483024
0.2399381016
0.237323712497
0.234764346527
0.232336927697
0.230138128135
0.228014653267
0.226056053624
0.224269012705
0.222659756754
0.221313281686
0.220076823229
0.219034877684
0.218190888921
0.217547370916
0.217100569483
0.216813988387
7.7149288829e-105
7.7149288829e-105
7.7149288829e-105
7.71492888291e-105
7.71492888291e-105
7.71492888291e-105
7.71492888291e-105
7.71492888291e-105
7.71492888291e-105
7.71492888291e-105
7.71492888291e-105
7.71492888292e-105
7.71492888292e-105
7.71492888292e-105
7.71492888292e-105
7.71492888292e-105
7.71492888292e-105
7.71492888292e-105
7.71492888293e-105
7.714928883e-105
7.7149288873e-105
7.71492915053e-105
7.71494509528e-105
7.71585700887e-105
7.76749314107e-105
8.43159089472e-105
7.81388587651e-08
0.259455650304
0.698460088793
0.510907043139
0.405134392026
0.358050534106
0.337723251141
0.328297272578
0.32255024605
0.317646547183
0.313038072338
0.308506915907
0.304151353924
0.299906026828
0.295691335737
0.291639046763
0.287613641703
0.28373957159
0.279880553993
0.276174005217
0.272477540188
0.268943743063
0.265429292877
0.262075798857
0.258740499119
0.255496998543
0.252438290951
0.249413065515
0.246507591057
0.243801773051
0.24115476398
0.238652077542
0.236381662648
0.234194967745
0.232181330507
0.230348011326
0.228782112971
0.227320850984
0.226052676203
0.224985917735
0.224117163893
0.223450421177
0.223072845083
0.222781406183
7.71492888288e-105
7.71492888288e-105
7.71492888288e-105
7.71492888288e-105
7.71492888288e-105
7.71492888288e-105
7.71492888288e-105
7.71492888289e-105
7.71492888289e-105
7.71492888289e-105
7.71492888289e-105
7.71492888289e-105
7.71492888289e-105
7.71492888289e-105
7.71492888289e-105
7.71492888289e-105
7.7149288829e-105
7.7149288829e-105
7.7149288829e-105
7.71492888308e-105
7.71492889416e-105
7.71492959187e-105
7.71497302036e-105
7.71762601488e-105
7.81014613247e-105
2.50138165015e-38
9.56742240767e-06
0.431337248144
0.654144632436
0.48809680562
0.402058231404
0.36399160935
0.347066697471
0.338784163797
0.333065895721
0.327954222
0.32304885995
0.318224068453
0.313593599362
0.30903476467
0.304647494152
0.300378880695
0.29613154208
0.292061691227
0.28801580161
0.284136221488
0.280272734474
0.276579163564
0.272909649684
0.269407568823
0.265935325046
0.262573789133
0.259402322322
0.256275576242
0.25335559883
0.250489234493
0.247763888719
0.245271985871
0.24285747506
0.240612150036
0.238544352195
0.236745906135
0.235050745101
0.233550920977
0.232252029064
0.231152734396
0.230352709138
0.229663372243
0.229185639583
0.228886979794
7.71492888285e-105
7.71492888285e-105
7.71492888286e-105
7.71492888286e-105
7.71492888286e-105
7.71492888286e-105
7.71492888286e-105
7.71492888286e-105
7.71492888286e-105
7.71492888286e-105
7.71492888286e-105
7.71492888287e-105
7.71492888287e-105
7.71492888287e-105
7.71492888287e-105
7.71492888287e-105
7.71492888287e-105
7.71492888287e-105
7.71492888288e-105
7.71492888348e-105
7.71492892024e-105
7.71493117289e-105
7.71506248398e-105
7.72272749037e-105
7.88718794664e-105
7.74098418023e-38
0.00148515859096
0.633360647257
0.611458419033
0.4711458932
0.401677487897
0.37101126124
0.357178697153
0.349540688562
0.343748066136
0.338363579647
0.33311386436
0.328083129537
0.323189905439
0.318373191229
0.313741208514
0.30923477832
0.304784382326
0.300522117411
0.296290591973
0.292238967288
0.288209442194
0.284371911331
0.280549739143
0.276919031913
0.273320975883
0.269917549869
0.26655753751
0.263325667073
0.260307856663
0.257355657802
0.254560084099
0.252008472114
0.249535720816
0.247235923097
0.245204894474
0.243279736953
0.241548720293
0.240014925928
0.238778112512
0.237653495439
0.236738183011
0.236033152664
0.235536313259
0.235228223526
7.71492888283e-105
7.71492888283e-105
7.71492888283e-105
7.71492888283e-105
7.71492888284e-105
7.71492888284e-105
7.71492888284e-105
7.71492888284e-105
7.71492888284e-105
7.71492888284e-105
7.71492888284e-105
7.71492888284e-105
7.71492888285e-105
7.71492888285e-105