/*--------------------------------*- C++ -*----------------------------------*\
| =========                 |                                                 |
| \\      /  F ield         | foam-extend: Open Source CFD                    |
|  \\    /   O peration     | Version:     4.1                                |
|   \\  /    A nd           | Web:         http://www.foam-extend.org         |
|    \\/     M anipulation  |                                                 |
\*---------------------------------------------------------------------------*/
FoamFile
{
    version     2.0;
    format      ascii;
    class       volScalarField;
    location    "0.0003";
    object      N2;
}
// * * * * * * * * * * * * * * * * * * * * * * * * * * * * * * * * * * * * * //

dimensions      [0 0 0 0 0 0 0];

internalField   nonuniform List<scalar> 
8400
(
0.767082
0.767082
0.767082
0.767082
0.767082
0.767082
0.767082
0.767082
0.767082
0.767082
0.767082
0.767082
0.767082
0.767082
0.767082
0.767082
0.767082
0.767082
0.767082
0.767082
0.767082
0.767082
0.767082
0.767082
0.767082
0.767082
0.767082
0.767082
0.767082
0.767082
0.766951882008
0.64064123032
0.00060698023818
2.27369879377e-05
5.23806317476e-06
2.49147434391e-06
1.8319885709e-06
1.62070257262e-06
1.54815065261e-06
1.51420845888e-06
1.48887931035e-06
1.46524017745e-06
1.44181275514e-06
1.4183467395e-06
1.39471514319e-06
1.37069072974e-06
1.3476287384e-06
1.32260217936e-06
1.29705988168e-06
1.27095267335e-06
1.24428353035e-06
1.21712492191e-06
1.19078195563e-06
1.16288981226e-06
1.13484093714e-06
1.10677605901e-06
1.07905061043e-06
1.05182367476e-06
1.02649453474e-06
1.00108511218e-06
9.7689369529e-07
9.5434606423e-07
9.33564373557e-07
9.14780325023e-07
8.98185215279e-07
8.84237370673e-07
8.72806533531e-07
8.65221542067e-07
8.59362858361e-07
8.52420401203e-07
0.767082
0.767082
0.767082
0.767082
0.767082
0.767082
0.767082
0.767082
0.767082
0.767082
0.767082
0.767082
0.767082
0.767082
0.767082
0.767082
0.767082
0.767082
0.767082
0.767082
0.767082
0.767082
0.767082
0.767082
0.767082
0.767082
0.767082
0.767082
0.767082
0.767082
0.755308914092
0.289488775177
8.34355120753e-05
1.00678357182e-05
3.30915743004e-06
1.96837004826e-06
1.59920751069e-06
1.48819730253e-06
1.44976188817e-06
1.42804486165e-06
1.40832490375e-06
1.38829313209e-06
1.36776063612e-06
1.34636150576e-06
1.32408429939e-06
1.30110798572e-06
1.27733850174e-06
1.25272401999e-06
1.2273611427e-06
1.20142081789e-06
1.17486058159e-06
1.14799846073e-06
1.12085502635e-06
1.09346489445e-06
1.0673323638e-06
1.04025081663e-06
1.01373194437e-06
9.87901900001e-07
9.63066333488e-07
9.39427075489e-07
9.17117491509e-07
8.96379675182e-07
8.77448234932e-07
8.61493351953e-07
8.46739216649e-07
8.34216670008e-07
8.24142847596e-07
8.16455524831e-07
8.11248308895e-07
8.06665255178e-07
0.767082
0.767082
0.767082
0.767082
0.767082
0.767082
0.767082
0.767082
0.767082
0.767082
0.767082
0.767082
0.767082
0.767082
0.767082
0.767082
0.767082
0.767082
0.767082
0.767082
0.767082
0.767082
0.767082
0.767082
0.767082
0.767082
0.767082
0.767082
0.767082
0.767077733393
0.715958904836
0.00201016233585
2.82633715366e-05
5.62732521455e-06
2.45699858124e-06
1.71869998937e-06
1.50445360276e-06
1.43963021757e-06
1.41231440977e-06
1.39357665004e-06
1.37555037219e-06
1.35669970071e-06
1.33699100428e-06
1.31636631698e-06
1.29478593744e-06
1.27236729408e-06
1.2490280937e-06
1.22487935051e-06
1.20001738154e-06
1.17445122037e-06
1.14847638783e-06
1.12214948811e-06
1.09551536933e-06
1.06892554044e-06
1.04244805696e-06
1.01749743438e-06
9.91989652786e-07
9.67333221502e-07
9.43731517134e-07
9.21324031828e-07
9.00317356413e-07
8.80943580769e-07
8.63373637459e-07
8.47626854658e-07
8.34857869024e-07
8.23329495228e-07
8.13978939982e-07
8.07021253008e-07
8.02352415204e-07
7.98387822698e-07
0.767082
0.767082
0.767082
0.767082
0.767082
0.767082
0.767082
0.767082
0.767082
0.767082
0.767082
0.767082
0.767082
0.767082
0.767082
0.767082
0.767082
0.767082
0.767082
0.767082
0.767082
0.767082
0.767082
0.767082
0.767082
0.767082
0.767082
0.767082
0.767082
0.763402347551
0.507479471308
0.00020504517007
1.4982455517e-05
4.01608426003e-06
2.11734344712e-06
1.6266474154e-06
1.48444565026e-06
1.43781209515e-06
1.41548724416e-06
1.3965729016e-06
1.37757203475e-06
1.35765994417e-06
1.33689098733e-06
1.31522109896e-06
1.29264811903e-06
1.2692846521e-06
1.24507364108e-06
1.22017744941e-06
1.19464756611e-06
1.16853913761e-06
1.1421106318e-06
1.11543788514e-06
1.08858243102e-06
1.06308359844e-06
1.03665296059e-06
1.01081994114e-06
9.85621419451e-07
9.6138204578e-07
9.38248011362e-07
9.16359790759e-07
8.95928157389e-07
8.78115822914e-07
8.61135609013e-07
8.46038890541e-07
8.32855315849e-07
8.218294477e-07
8.12895522412e-07
8.06236630093e-07
8.01804231629e-07
7.98160798929e-07
0.767082
0.767082
0.767082
0.767082
0.767082
0.767082
0.767082
0.767082
0.767082
0.767082
0.767082
0.767082
0.767082
0.767082
0.767082
0.767082
0.767082
0.767082
0.767082
0.767082
0.767082
0.767082
0.767082
0.767082
0.767082
0.767082
0.767082
0.767082
0.767082
0.755319775255
0.289137198635
8.32280647124e-05
1.00598131905e-05
3.31833071457e-06
1.98338982431e-06
1.61917709771e-06
1.5081864899e-06
1.46930386072e-06
1.44629331607e-06
1.42533386508e-06
1.40408285867e-06
1.38202741905e-06
1.35916710663e-06
1.33550577944e-06
1.31104335842e-06
1.28583764828e-06
1.25992564203e-06
1.23336371217e-06
1.20641955608e-06
1.17900565562e-06
1.15135842812e-06
1.12477411142e-06
1.09704687742e-06
1.06963065578e-06
1.04261161835e-06
1.01624327408e-06
9.9071464713e-07
9.66178636414e-07
9.42846141888e-07
9.21874016195e-07
9.01435114586e-07
8.82707824453e-07
8.65809805652e-07
8.50793530806e-07
8.3785026743e-07
8.26920253364e-07
8.18171969017e-07
8.11551933853e-07
8.07094123411e-07
8.03567645055e-07
0.767082
0.767082
0.767082
0.767082
0.767082
0.767082
0.767082
0.767082
0.767082
0.767082
0.767082
0.767082
0.767082
0.767082
0.767082
0.767082
0.767082
0.767082
0.767082
0.767082
0.767082
0.767082
0.767082
0.767082
0.767082
0.767082
0.767082
0.767082
0.767082
0.755945104271
0.0968193887072
4.79944378753e-05
7.71102837386e-06
2.97638731519e-06
1.94682483822e-06
1.65451205747e-06
1.56275911974e-06
1.5254913388e-06
1.49941387629e-06
1.47500435012e-06
1.45043858148e-06
1.42539851614e-06
1.39964479482e-06
1.37323150972e-06
1.34615458819e-06
1.31841776028e-06
1.29021218916e-06
1.26160639358e-06
1.2325024357e-06
1.20447726451e-06
1.17498583143e-06
1.14562342816e-06
1.11646605208e-06
1.08773955669e-06
1.05963279481e-06
1.03220103148e-06
1.0068574487e-06
9.81578068699e-07
9.57582384523e-07
9.35081488266e-07
9.14234621578e-07
8.95111711228e-07
8.77876556128e-07
8.62664744078e-07
8.49469623882e-07
8.39486932623e-07
8.30578788249e-07
8.23873949076e-07
8.194167858e-07
8.15847213916e-07
0.767082
0.767082
0.767082
0.767082
0.767082
0.767082
0.767082
0.767082
0.767082
0.767082
0.767082
0.767082
0.767082
0.767082
0.767082
0.767082
0.767082
0.767082
0.767082
0.767082
0.767082
0.767082
0.767082
0.767082
0.767082
0.767082
0.767082
0.767082
0.767079805766
0.736986973565
0.00438749593357
3.30027085542e-05
6.45036720702e-06
2.81248725999e-06
1.96935384785e-06
1.71952661401e-06
1.63831891001e-06
1.59955489746e-06
1.57032844721e-06
1.54222154669e-06
1.51391522048e-06
1.48508968054e-06
1.45592534509e-06
1.42629242403e-06
1.39605488624e-06
1.36536179944e-06
1.33423893063e-06
1.30417491388e-06
1.27256428339e-06
1.24085446641e-06
1.20926639323e-06
1.1778473043e-06
1.14680652555e-06
1.1162962916e-06
1.08773103461e-06
1.0588751851e-06
1.03114315431e-06
1.00470824952e-06
9.79764032276e-07
9.56380051251e-07
9.34693235807e-07
9.15984094914e-07
8.98175364153e-07
8.82473897009e-07
8.68902089698e-07
8.57610923642e-07
8.48491573332e-07
8.41616141901e-07
8.37027043632e-07
8.33418575142e-07
0.767082
0.767082
0.767082
0.767082
0.767082
0.767082
0.767082
0.767082
0.767082
0.767082
0.767082
0.767082
0.767082
0.767082
0.767082
0.767082
0.767082
0.767082
0.767082
0.767082
0.767082
0.767082
0.767082
0.767082
0.767082
0.767082
0.767082
0.767082
0.767008229688
0.661273683425
0.000826989523584
2.48131170265e-05
5.7083277952e-06
2.74525088188e-06
2.02981903186e-06
1.8090684196e-06
1.7329622778e-06
1.69220308366e-06
1.65896759017e-06
1.62642818322e-06
1.59375092511e-06
1.56072897779e-06
1.52749056536e-06
1.49383364003e-06
1.46137943335e-06
1.42709237263e-06
1.39259445418e-06
1.35800868621e-06
1.32332659446e-06
1.28880537874e-06
1.25446855391e-06
1.22054760309e-06
1.18845926889e-06
1.15572205022e-06
1.12405360769e-06
1.09347001053e-06
1.0640753659e-06
1.03620087138e-06
1.00985348574e-06
9.86458456712e-07
9.63735779666e-07
9.43120091516e-07
9.24600108724e-07
9.08201255171e-07
8.94077956869e-07
8.82223463283e-07
8.72781137583e-07
8.65638302146e-07
8.60851180034e-07
8.57221496785e-07
0.767082
0.767082
0.767082
0.767082
0.767082
0.767082
0.767082
0.767082
0.767082
0.767082
0.767082
0.767082
0.767082
0.767082
0.767082
0.767082
0.767082
0.767082
0.767082
0.767082
0.767082
0.767082
0.767082
0.767082
0.767082
0.767082
0.767082
0.767082
0.766029168294
0.577007506264
0.000356824193364
2.0006794275e-05
5.2573233197e-06
2.76093002974e-06
2.12487127495e-06
1.91962630724e-06
1.8463720576e-06
1.80363169518e-06
1.76574551025e-06
1.7281518057e-06
1.69040123722e-06
1.65239510302e-06
1.61596504661e-06
1.57768045278e-06
1.53940012134e-06
1.50093456399e-06
1.46256415204e-06
1.42418699878e-06
1.38596019203e-06
1.34808074696e-06
1.31183550848e-06
1.27496549542e-06
1.23879570967e-06
1.20372324893e-06
1.1697201123e-06
1.13691056649e-06
1.10678247809e-06
1.07708637658e-06
1.04915979077e-06
1.02316128042e-06
9.99258565621e-07
9.77486805145e-07
9.57901362986e-07
9.41822700571e-07
9.26924488574e-07
9.14530653144e-07
9.045027087e-07
8.97068875869e-07
8.9205952076e-07
8.88255111758e-07
0.767082
0.767082
0.767082
0.767082
0.767082
0.767082
0.767082
0.767082
0.767082
0.767082
0.767082
0.767082
0.767082
0.767082
0.767082
0.767082
0.767082
0.767082
0.767082
0.767082
0.767082
0.767082
0.767082
0.767082
0.767082
0.767082
0.767082
0.767082
0.761902337773
0.487175259756
0.000204997559534
1.68664887828e-05
5.02048066039e-06
2.82694842837e-06
2.2427977235e-06
2.06079605051e-06
1.98429823008e-06
1.93597874581e-06
1.89194181968e-06
1.84834729675e-06
1.80464720479e-06
1.76261676114e-06
1.71898991041e-06
1.67545896874e-06
1.63213213702e-06
1.58879066669e-06
1.5457654771e-06
1.50288582308e-06
1.46209501079e-06
1.42028338579e-06
1.37911707624e-06
1.33874113078e-06
1.29939436137e-06
1.26124942948e-06
1.22579459993e-06
1.19044273348e-06
1.15686430018e-06
1.12506091811e-06
1.09524764716e-06
1.0675947606e-06
1.04327991929e-06
1.02013820018e-06
9.99406270595e-07
9.8117846814e-07
9.65473748173e-07
9.52383852452e-07
9.41880820072e-07
9.3400842763e-07
9.28692365162e-07
9.24709170808e-07
0.767082
0.767082
0.767082
0.767082
0.767082
0.767082
0.767082
0.767082
0.767082
0.767082
0.767082
0.767082
0.767082
0.767082
0.767082
0.767082
0.767082
0.767082
0.767082
0.767082
0.767082
0.767082
0.767082
0.767082
0.767082
0.767082
0.767082
0.767082
0.757589971996
0.387595575141
0.000135373818213
1.4534619015e-05
4.87224301005e-06
2.94895086526e-06
2.40929595456e-06
2.22955741917e-06
2.14763275338e-06
2.09181754991e-06
2.03987692875e-06
1.99056428188e-06
1.93981499636e-06
1.8893206815e-06
1.83935570326e-06
1.78968029193e-06
1.7403568972e-06
1.69134739092e-06
1.64455038929e-06
1.59663662345e-06
1.54958542518e-06
1.5032252636e-06
1.45778225363e-06
1.41497798946e-06
1.37189160617e-06
1.33034109073e-06
1.2902615224e-06
1.25199320602e-06
1.21573012771e-06
1.18280196324e-06
1.15079580018e-06
1.12108549615e-06
1.09389105669e-06
1.06919909973e-06
1.04705834943e-06
1.02892307127e-06
1.01213076044e-06
9.98213968324e-07
9.87005809637e-07
9.78632304074e-07
9.72973834399e-07
9.68794537242e-07
0.767082
0.767082
0.767082
0.767082
0.767082
0.767082
0.767082
0.767082
0.767082
0.767082
0.767082
0.767082
0.767082
0.767082
0.767082
0.767082
0.767082
0.767082
0.767082
0.767082
0.767082
0.767082
0.767082
0.767082
0.767082
0.767082
0.767082
0.767082
0.755012900816
0.285998417056
9.58536861036e-05
1.29294636043e-05
4.80684726356e-06
3.11388779665e-06
2.60398161369e-06
2.42653298422e-06
2.34127110595e-06
2.27346559718e-06
2.21392796863e-06
2.15406561586e-06
2.09485235112e-06
2.036365978e-06
1.97854569668e-06
1.92154934745e-06
1.86697298152e-06
1.81142134212e-06
1.75676566733e-06
1.70317349938e-06
1.65048667218e-06
1.60058769317e-06
1.55017211657e-06
1.50140908217e-06
1.45412013742e-06
1.40856901872e-06
1.3663868018e-06
1.32475733982e-06
1.28532709195e-06
1.24829868382e-06
1.21360557833e-06
1.18298630939e-06
1.15370459548e-06
1.12717131898e-06
1.10350105943e-06
1.08271432733e-06
1.06485570183e-06
1.04998854828e-06
1.0380362678e-06
1.02904169313e-06
1.02300014034e-06
1.01862835062e-06
0.767082
0.767082
0.767082
0.767082
0.767082
0.767082
0.767082
0.767082
0.767082
0.767082
0.767082
0.767082
0.767082
0.767082
0.767082
0.767082
0.767082
0.767082
0.767082
0.767082
0.767082
0.767082
0.767082
0.767082
0.767082
0.767082
0.767082
0.767082
0.754567656027
0.175897861658
7.15707826729e-05
1.17696373292e-05
4.84373498936e-06
3.31432169986e-06
2.83726497079e-06
2.65881454938e-06
2.56438003637e-06
2.48678338566e-06
2.41377568234e-06
2.34273984038e-06
2.27347606145e-06
2.20539440888e-06
2.14047856757e-06
2.07485352308e-06
2.01039132598e-06
1.94729246788e-06
1.88541252278e-06
1.8266139841e-06
1.76750875531e-06
1.71011186291e-06
1.65415225483e-06
1.60026324343e-06
1.54973696894e-06
1.49955674571e-06
1.45185529958e-06
1.40638480401e-06
1.36493557883e-06
1.32464663959e-06
1.28709592699e-06
1.252508157e-06
1.22085242803e-06
1.19213078176e-06
1.16795939955e-06
1.14561770974e-06
1.12643664463e-06
1.11041624368e-06
1.09758769157e-06
1.08791938202e-06
1.08136929739e-06
1.07671476822e-06
0.767082
0.767082
0.767082
0.767082
0.767082
0.767082
0.767082
0.767082
0.767082
0.767082
0.767082
0.767082
0.767082
0.767082
0.767082
0.767082
0.767082
0.767082
0.767082
0.767082
0.767082
0.767082
0.767082
0.767082
0.767082
0.767082
0.767082
0.767082
0.75885178008
0.0714570743475
5.5141805659e-05
1.09300029657e-05
4.95052614289e-06
3.55573485431e-06
3.10857969698e-06
2.92775227823e-06
2.82125232588e-06
2.72937092978e-06
2.64287003753e-06
2.55919513301e-06
2.47785930856e-06
2.40065823891e-06
2.3233171589e-06
2.24774861753e-06
2.17400271252e-06
2.10393842245e-06
2.03353078728e-06
1.96537467722e-06
1.89884642154e-06
1.83632525188e-06
1.77402181589e-06
1.71390444604e-06
1.65637970872e-06
1.60108944365e-06
1.55032452998e-06
1.5004810026e-06
1.45362396278e-06
1.40964207582e-06
1.37040364561e-06
1.33279313861e-06
1.29843747607e-06
1.26739821563e-06
1.23983527314e-06
1.21570667927e-06
1.19502888947e-06
1.17902050246e-06
1.1652098668e-06
1.15474675011e-06
1.14768934802e-06
1.14281989545e-06
0.767082
0.767082
0.767082
0.767082
0.767082
0.767082
0.767082
0.767082
0.767082
0.767082
0.767082
0.767082
0.767082
0.767082
0.767082
0.767082
0.767082
0.767082
0.767082
0.767082
0.767082
0.767082
0.767082
0.767082
0.767082
0.767082
0.767082
0.767078865021
0.731450794905
0.00682510924273
4.39407149832e-05
1.02130653301e-05
5.15536902083e-06
3.85792821486e-06
3.42400474176e-06
3.23827507734e-06
3.11588017348e-06
3.00793978909e-06
2.90537605046e-06
2.80905361481e-06
2.71331282115e-06
2.62084636595e-06
2.53096799678e-06
2.44603679946e-06
2.36132487592e-06
2.27909667458e-06
2.19935492142e-06
2.1240505534e-06
2.04927728898e-06
1.97700725922e-06
1.90751296124e-06
1.84255536488e-06
1.77838918997e-06
1.71745615684e-06
1.65936376703e-06
1.60656964464e-06
1.55523961734e-06
1.50710332344e-06
1.46257618698e-06
1.42160598448e-06
1.38583371177e-06
1.35221553742e-06
1.32224656124e-06
1.29609581233e-06
1.27369632939e-06
1.25495516248e-06
1.24001638609e-06
1.22866894749e-06
1.22251923766e-06
1.21727478085e-06
0.767082
0.767082
0.767082
0.767082
0.767082
0.767082
0.767082
0.767082
0.767082
0.767082
0.767082
0.767082
0.767082
0.767082
0.767082
0.767082
0.767082
0.767082
0.767082
0.767082
0.767082
0.767082
0.767082
0.767082
0.767082
0.767082
0.767082
0.766986426294
0.660454400056
0.00119247077329
3.55859722617e-05
9.7643042384e-06
5.38120434582e-06
4.20377370688e-06
3.79257233452e-06
3.59606379772e-06
3.45424996882e-06
3.32595813113e-06
3.20714652938e-06
3.09066211947e-06
2.9786101872e-06
2.87054146758e-06
2.76873978169e-06
2.66797344165e-06
2.57053425406e-06
2.47884049534e-06
2.38796384484e-06
2.30050853446e-06
2.21625088956e-06
2.13721008094e-06
2.05931506013e-06
1.98480412547e-06
1.91568796777e-06
1.84804096489e-06
1.78408975772e-06
1.72370772148e-06
1.66910408674e-06
1.6163620452e-06
1.56759191917e-06
1.52281507497e-06
1.48212538394e-06
1.44710452828e-06
1.41461415975e-06
1.3862573956e-06
1.36192225829e-06
1.34156851676e-06
1.32533151954e-06
1.31300226961e-06
1.30464118455e-06
1.29908422382e-06
0.767082
0.767082
0.767082
0.767082
0.767082
0.767082
0.767082
0.767082
0.767082
0.767082
0.767082
0.767082
0.767082
0.767082
0.767082
0.767082
0.767082
0.767082
0.767082
0.767082
0.767082
0.767082
0.767082
0.767082
0.767082
0.767082
0.767082
0.765401888982
0.572414808619
0.000473864533962
2.97114259044e-05
9.53509231834e-06
5.70170874294e-06
4.61499535781e-06
4.21394167269e-06
4.00214196908e-06
3.8383528896e-06
3.69059816101e-06
3.54718048479e-06
3.41021977807e-06
3.28163937913e-06
3.15571959358e-06
3.03464649004e-06
2.92081573264e-06
2.80898795495e-06
2.70125300552e-06
2.59779947032e-06
2.50075768146e-06
2.4054604923e-06
2.31414642626e-06
2.22917700096e-06
2.14598123629e-06
2.06684578942e-06
1.99401627805e-06
1.92312805305e-06
1.85660880655e-06
1.79449186262e-06
1.73843392774e-06
1.68509092664e-06
1.63608079375e-06
1.59153142243e-06
1.55152440895e-06
1.51785309755e-06
1.48685796471e-06
1.46031380016e-06
1.43825061148e-06
1.42049083969e-06
1.40717638408e-06
1.39805931049e-06
1.39195970959e-06
0.767082
0.767082
0.767082
0.767082
0.767082
0.767082
0.767082
0.767082
0.767082
0.767082
0.767082
0.767082
0.767082
0.767082
0.767082
0.767082
0.767082
0.767082
0.767082
0.767082
0.767082
0.767082
0.767082
0.767082
0.767082
0.767082
0.767082
0.759653400746
0.460948500921
0.000250517640472
2.544013551e-05
9.4287529392e-06
6.13051080356e-06
5.10791645527e-06
4.70011349011e-06
4.46735151177e-06
4.27971895844e-06
4.10197402881e-06
3.93280569078e-06
3.77461975574e-06
3.62072646681e-06
3.47368199006e-06
3.33612549951e-06
3.20194271254e-06
3.07331161507e-06
2.95289955293e-06
2.83511829507e-06
2.72226417531e-06
2.61704827474e-06
2.51437572132e-06
2.41630721735e-06
2.32560786495e-06
2.23741875216e-06
2.15420412126e-06
2.07800173087e-06
2.00457268569e-06
1.93592478419e-06
1.87243004696e-06
1.81582121738e-06
1.76204143627e-06
1.71335665146e-06
1.66968875849e-06
1.63093861641e-06
1.5990228925e-06
1.57012925768e-06
1.54600016467e-06
1.52672515326e-06
1.51201505208e-06
1.50208886205e-06
1.4955577689e-06
0.767082
0.767082
0.767082
0.767082
0.767082
0.767082
0.767082
0.767082
0.767082
0.767082
0.767082
0.767082
0.767082
0.767082
0.767082
0.767082
0.767082
0.767082
0.767082
0.767082
0.767082
0.767082
0.767082
0.767082
0.767082
0.767082
0.767082
0.755280613764
0.33216345648
0.000151447462937
2.22657323281e-05
9.47548636835e-06
6.62303563039e-06
5.685974199e-06
5.26691177009e-06
5.00362372452e-06
4.77708753523e-06
4.56663433517e-06
4.37047282884e-06
4.18145338261e-06
4.00507917892e-06
3.83397190668e-06
3.67128649969e-06
3.51921856318e-06
3.37144548095e-06
3.23075819016e-06
3.09942996825e-06
2.97169101096e-06
2.852700854e-06
2.73699542205e-06
2.62703385241e-06
2.52556284856e-06
2.427174845e-06
2.33445630986e-06
2.2475657842e-06
2.16857239785e-06
2.09287010112e-06
2.02294217167e-06
1.96066057485e-06
1.90174004326e-06
1.84855733294e-06
1.80080920926e-06
1.75840566568e-06
1.7234812295e-06
1.69196310148e-06
1.66576810756e-06
1.64466579194e-06
1.6287378473e-06
1.61782297264e-06
1.61075710049e-06
0.767082
0.767082
0.767082
0.767082
0.767082
0.767082
0.767082
0.767082
0.767082
0.767082
0.767082
0.767082
0.767082
0.767082
0.767082
0.767082
0.767082
0.767082
0.767082
0.767082
0.767082
0.767082
0.767082
0.767082
0.767082
0.767082
0.767082
0.755059575029
0.18395190652
9.98754477423e-05
1.99739924059e-05
9.719524386e-06
7.24150010947e-06
6.33867284855e-06
5.90913795736e-06
5.60677699751e-06
5.3391227708e-06
5.09363386619e-06
4.85910435801e-06
4.64158739312e-06
4.43218019383e-06
4.23729728309e-06
4.04910484502e-06
3.87042544208e-06
3.70431718032e-06
3.54319405285e-06
3.39354318882e-06
3.2485159264e-06
3.11105846415e-06
2.98386084403e-06
2.86052976649e-06
2.74425538709e-06
2.63735418382e-06
2.53434213913e-06
2.43780100028e-06
2.35043776869e-06
2.26694896149e-06
2.18961600595e-06
2.11877609044e-06
2.05641178523e-06
1.99800768397e-06
1.94584532263e-06
1.89961652996e-06
1.86150545503e-06
1.82701835669e-06
1.79830698108e-06
1.77512012708e-06
1.75773915902e-06
1.74572836183e-06
1.73806192878e-06
0.767082
0.767082
0.767082
0.767082
0.767082
0.767082
0.767082
0.767082
0.767082
0.767082
0.767082
0.767082
0.767082
0.767082
0.767082
0.767082
0.767082
0.767082
0.767082
0.767082
0.767082
0.767082
0.767082
0.767082
0.767082
0.767082
0.767079866916
0.745335137794
0.0378820741062
7.05249139733e-05
1.83672017514e-05
1.01622180504e-05
7.96061868247e-06
7.1063621947e-06
6.64070984982e-06
6.28962694332e-06
5.97743246193e-06
5.68330420633e-06
5.41156155377e-06
5.15256897154e-06
4.91228201846e-06
4.68214636101e-06
4.4692671957e-06
4.26394983506e-06
4.0737696231e-06
3.88998631947e-06
3.71646604351e-06
3.55547692839e-06
3.40013557185e-06
3.25672392085e-06
3.11852586193e-06
2.98823252293e-06
2.86913701904e-06
2.75465475694e-06
2.64791751934e-06
2.5512218076e-06
2.45899528855e-06
2.37379313074e-06
2.29601964785e-06
2.22775011617e-06
2.16362526829e-06
2.10627007198e-06
2.05565077325e-06
2.01391500221e-06
1.97629450263e-06
1.94498693985e-06
1.9197140887e-06
1.90061877809e-06
1.88741182072e-06
1.87897777386e-06
0.767082
0.767082
0.767082
0.767082
0.767082
0.767082
0.767082
0.767082
0.767082
0.767082
0.767082
0.767082
0.767082
0.767082
0.767082
0.767082
0.767082
0.767082
0.767082
0.767082
0.767082
0.767082
0.767082
0.767082
0.767082
0.767082
0.766837008293
0.64671855325
0.00173689218366
5.23857709563e-05
1.72960718707e-05
1.07289310195e-05
8.79796103484e-06
7.96613727932e-06
7.46448771635e-06
7.06062077361e-06
6.68821570651e-06
6.34723900915e-06
6.02392983436e-06
5.72662725013e-06
5.44363916645e-06
5.18200467205e-06
4.93152471607e-06
4.69999162863e-06
4.47824514236e-06
4.27315488502e-06
4.07621544116e-06
3.89427746735e-06
3.71918032559e-06
3.55810051084e-06
3.40337685255e-06
3.2580928835e-06
3.12491695355e-06
2.99771623654e-06
2.87930160641e-06
2.77224647569e-06
2.67049487787e-06
2.57688216278e-06
2.49404429935e-06
2.41630897433e-06
2.34614310863e-06
2.28346138994e-06
2.2281222875e-06
2.18254380811e-06
2.14135217691e-06
2.10697292887e-06
2.0793852708e-06
2.05839746324e-06
2.04382180272e-06
2.03469060969e-06
0.767082
0.767082
0.767082
0.767082
0.767082
0.767082
0.767082
0.767082
0.767082
0.767082
0.767082
0.767082
0.767082
0.767082
0.767082
0.767082
0.767082
0.767082
0.767082
0.767082
0.767082
0.767082
0.767082
0.767082
0.767082
0.767082
0.760902120891
0.506467996491
0.000456396740174
4.18360459735e-05
1.67978787134e-05
1.15195959221e-05
9.77968077154e-06
8.95261705988e-06
8.39629924294e-06
7.91890462682e-06
7.48718915754e-06
7.08223455828e-06
6.71065346224e-06
6.36473880886e-06
6.03643849413e-06
5.73442259299e-06
5.44714099612e-06
5.1821761014e-06
4.92896354197e-06
4.69567325972e-06
4.47228677904e-06
4.26669561126e-06
4.07002038976e-06
3.88928269373e-06
3.71627665972e-06
3.55408365919e-06
3.40624306168e-06
3.26507878846e-06
3.13387678785e-06
3.01557497859e-06
2.9033846406e-06
2.80025136282e-06
2.7092813932e-06
2.62374815207e-06
2.5469289578e-06
2.47844044348e-06
2.42092170659e-06
2.3682428644e-06
2.32314211976e-06
2.28566165038e-06
2.25543003527e-06
2.23226290369e-06
2.21886123457e-06
2.20889875569e-06
0.767082
0.767082
0.767082
0.767082
0.767082
0.767082
0.767082
0.767082
0.767082
0.767082
0.767082
0.767082
0.767082
0.767082
0.767082
0.767082
0.767082
0.767082
0.767082
0.767082
0.767082
0.767082
0.767082
0.767082
0.767082
0.767082
0.754777769899
0.33478078198
0.000207846891967
3.46124196377e-05
1.68629177351e-05
1.25292631432e-05
1.091667429e-05
1.00691591257e-05
9.43841854779e-06
8.88461561952e-06
8.37751496165e-06
7.90354111182e-06
7.47039678349e-06
7.06401857868e-06
6.69065174855e-06
6.34381423079e-06
6.01431914538e-06
5.71184329511e-06
5.42449049218e-06
5.16000035108e-06
4.90783990121e-06
4.67621119587e-06
4.45520817782e-06
4.25231552281e-06
4.05897557773e-06
3.87863779454e-06
3.71430554106e-06
3.55801507631e-06
3.41670960664e-06
3.28252478082e-06
3.15909022523e-06
3.0492670978e-06
2.94583028712e-06
2.85219488704e-06
2.76798559732e-06
2.69616486576e-06
2.62984989733e-06
2.57221329267e-06
2.52304520863e-06
2.48189242232e-06
2.45197255843e-06
2.42644711104e-06
2.40864229595e-06
2.39755124105e-06
0.767082
0.767082
0.767082
0.767082
0.767082
0.767082
0.767082
0.767082
0.767082
0.767082
0.767082
0.767082
0.767082
0.767082
0.767082
0.767082
0.767082
0.767082
0.767082
0.767082
0.767082
0.767082
0.767082
0.767082
0.767082
0.767082
0.75921204269
0.132620280939
0.000119629960093
3.05265884409e-05
1.73805461761e-05
1.37415213491e-05
1.22451175462e-05
1.13275010153e-05
1.06043709059e-05
9.95659680497e-06
9.35784068749e-06
8.81360955751e-06
8.31100125345e-06
7.84110214704e-06
7.41084587689e-06
7.01203470417e-06
6.63651955385e-06
6.29267311386e-06
5.96671213871e-06
5.66802615765e-06
5.38364769121e-06
5.12396091338e-06
4.87606408125e-06
4.64962121817e-06
4.43417629319e-06
4.23791949383e-06
4.05138915009e-06
3.87834466403e-06
3.72207355887e-06
3.57424034537e-06
3.43853208219e-06
3.31832599061e-06
3.20498663409e-06
3.10255171009e-06
3.01394129258e-06
2.93190702238e-06
2.85960200297e-06
2.79661685143e-06
2.74637396868e-06
2.701419605e-06
2.66499338507e-06
2.63708904604e-06
2.61720780085e-06
2.60490427676e-06
0.767082
0.767082
0.767082
0.767082
0.767082
0.767082
0.767082
0.767082
0.767082
0.767082
0.767082
0.767082
0.767082
0.767082
0.767082
0.767082
0.767082
0.767082
0.767082
0.767082
0.767082
0.767082
0.767082
0.767082
0.767082
0.766940048534
0.663328550291
0.00473643084706
7.94567480125e-05
2.79692727687e-05
1.83277607623e-05
1.52246837564e-05
1.37432845037e-05
1.27382915603e-05
1.18897077244e-05
1.11344201491e-05
1.04447855967e-05
9.81402995691e-06
9.23374536741e-06
8.69392267235e-06
8.20089700372e-06
7.7457061515e-06
7.31775719744e-06
6.92688643707e-06
6.55770246633e-06
6.22069454752e-06
5.90253741422e-06
5.61093072329e-06
5.33479237702e-06
5.08269663186e-06
4.84340642098e-06
4.62605524782e-06
4.41967436808e-06
4.23309044486e-06
4.05651820723e-06
3.89391856346e-06
3.74900983648e-06
3.61264258198e-06
3.48852061514e-06
3.38051761121e-06
3.27953691845e-06
3.18992234921e-06
3.1109338464e-06
3.04635702453e-06
2.98747589387e-06
2.93839135942e-06
2.89863095494e-06
2.86787239533e-06
2.84589131061e-06
2.83602450603e-06
0.767082
0.767082
0.767082
0.767082
0.767082
0.767082
0.767082
0.767082
0.767082
0.767082
0.767082
0.767082
0.767082
0.767082
0.767082
0.767082
0.767082
0.767082
0.767082
0.767082
0.767082
0.767082
0.767082
0.767082
0.767082
0.75876482386
0.482312951919
0.000562081436923
5.92480696134e-05
2.68892495482e-05
1.9621962112e-05
1.68978958004e-05
1.5413940269e-05
1.42915927153e-05
1.33162263215e-05
1.24367045587e-05
1.16368419299e-05
1.09093980159e-05
1.02429870982e-05
9.62399509034e-06
9.06195953097e-06
8.54474009468e-06
8.0601679247e-06
7.61791394081e-06
7.20921195271e-06
6.82381109429e-06
6.47263246133e-06
6.14055082887e-06
5.83840506866e-06
5.5524908601e-06
5.29301904271e-06
5.04686635476e-06
4.82467734087e-06
4.61423388623e-06
4.42043424253e-06
4.24681717378e-06
4.08348470122e-06
3.93462136314e-06
3.80359119899e-06
3.68106282118e-06
3.57078139296e-06
3.47751379623e-06
3.39114693511e-06
3.31598696955e-06
3.2518516582e-06
3.19808695478e-06
3.15896865658e-06
3.12491165942e-06
3.10038597075e-06
3.08511594289e-06
0.767082
0.767082
0.767082
0.767082
0.767082
0.767082
0.767082
0.767082
0.767082
0.767082
0.767082
0.767082
0.767082
0.767082
0.767082
0.767082
0.767082
0.767082
0.767082
0.767082
0.767082
0.767082
0.767082
0.767082
0.767082
0.75482020506
0.257572817163
0.000220124510098
4.84902974613e-05
2.7082956228e-05
2.13484118394e-05
1.88658354955e-05
1.72840660078e-05
1.60128624586e-05
1.48842874364e-05
1.38663235608e-05
1.29430872012e-05
1.21039578204e-05
1.13403718172e-05
1.06344863832e-05
9.99560758412e-06
9.4096414256e-06
8.8699574253e-06
8.36557159799e-06
7.90718864971e-06
7.47633741959e-06
7.08419344366e-06
6.72150725223e-06
6.37950797212e-06
6.06865510681e-06
5.77483674135e-06
5.50979322629e-06
5.25931977133e-06
5.0282311875e-06
4.82124802834e-06
4.62597987446e-06
4.45289716559e-06
4.28985545722e-06
4.1419822677e-06
4.00836592729e-06
3.893541793e-06
3.78674682485e-06
3.6931413228e-06
3.61149729344e-06
3.54639841463e-06
3.48767264311e-06
3.43974596551e-06
3.40222000691e-06
3.37514438946e-06
3.35800396527e-06
0.767082
0.767082
0.767082
0.767082
0.767082
0.767082
0.767082
0.767082
0.767082
0.767082
0.767082
0.767082
0.767082
0.767082
0.767082
0.767082
0.767082
0.767082
0.767082
0.767082
0.767082
0.767082
0.767082
0.767082
0.767019154317
0.699389117371
0.0322503367503
0.000123654660935
4.29389064431e-05
2.81751884042e-05
2.35149012107e-05
2.1085390662e-05
1.93566428679e-05
1.78907768173e-05
1.65888004256e-05
1.54167112926e-05
1.43585712596e-05
1.3400859953e-05
1.25302869034e-05
1.17384933461e-05
1.10060879009e-05
1.03436446406e-05
9.73648126515e-06
9.17191166017e-06
8.65909974232e-06
8.18710268422e-06
7.74393525083e-06
7.34186731656e-06
6.96284273187e-06
6.6204168921e-06
6.29717651261e-06
6.00538334717e-06
5.73062653244e-06
5.48373141033e-06
5.25042300817e-06
5.04316562188e-06
4.84773574374e-06
4.67052937105e-06
4.51541514639e-06
4.37053281777e-06
4.24021841562e-06
4.12417788817e-06
4.02780610835e-06
3.93877977313e-06
3.86252319535e-06
3.79851964518e-06
3.75148727048e-06
3.71025097655e-06
3.67979957325e-06
3.66053337766e-06
0.767082
0.767082
0.767082