/*--------------------------------*- C++ -*----------------------------------*\
| =========                 |                                                 |
| \\      /  F ield         | foam-extend: Open Source CFD                    |
|  \\    /   O peration     | Version:     4.1                                |
|   \\  /    A nd           | Web:         http://www.foam-extend.org         |
|    \\/     M anipulation  |                                                 |
\*---------------------------------------------------------------------------*/
FoamFile
{
    version     2.0;
    format      ascii;
    class       volScalarField;
    location    "0.0003";
    object      N2Plus;
}
// * * * * * * * * * * * * * * * * * * * * * * * * * * * * * * * * * * * * * //

dimensions      [0 0 0 0 0 0 0];

internalField   nonuniform List<scalar> 
8400
(
7.21720706887e-185
7.21720706892e-185
7.21720706897e-185
7.21720706901e-185
7.21720706905e-185
7.2172070691e-185
7.21720706914e-185
7.21720706918e-185
7.21720706922e-185
7.21720706926e-185
7.2172070693e-185
7.21720706934e-185
7.21720706938e-185
7.21720706942e-185
7.21720706945e-185
7.21720706949e-185
7.21720706953e-185
7.21720706956e-185
7.2172070696e-185
7.21720706963e-185
7.21720706966e-185
7.2172070697e-185
7.21720706973e-185
7.21720706978e-185
7.21720707106e-185
7.21720715061e-185
7.21721218623e-185
7.21751335885e-185
7.23604020831e-185
7.52674242995e-185
2.06032035175e-35
2.74375094091e-07
2.35310635145e-05
1.41835868345e-05
9.69188083398e-06
7.96717652675e-06
7.45453243012e-06
7.25743805084e-06
7.16086236108e-06
7.09393105017e-06
7.03331023856e-06
6.97372265779e-06
6.91401680694e-06
6.85358592404e-06
6.79246297242e-06
6.73004623344e-06
6.669317391e-06
6.60332241267e-06
6.53546337845e-06
6.46542400192e-06
6.39314478844e-06
6.31890603567e-06
6.24604378903e-06
6.16826344729e-06
6.08916701923e-06
6.009142969e-06
5.92915027373e-06
5.84962787104e-06
5.77460169256e-06
5.69851786467e-06
5.62513162106e-06
5.55597962739e-06
5.4916221434e-06
5.43294100214e-06
5.38074768193e-06
5.33630051304e-06
5.29985383624e-06
5.27535736114e-06
5.25661751931e-06
5.24000860909e-06
7.21720705985e-185
7.21720705987e-185
7.21720705989e-185
7.21720705991e-185
7.21720705992e-185
7.21720705994e-185
7.21720705996e-185
7.21720705998e-185
7.21720705999e-185
7.21720706001e-185
7.21720706002e-185
7.21720706004e-185
7.21720706006e-185
7.21720706007e-185
7.21720706009e-185
7.2172070601e-185
7.21720706012e-185
7.21720706013e-185
7.21720706015e-185
7.21720706016e-185
7.21720706017e-185
7.21720706019e-185
7.2172070602e-185
7.21720706032e-185
7.21720706678e-185
7.21720748637e-185
7.217234384e-185
7.21892738272e-185
7.28484181393e-185
1.67855757697e-71
7.75427686252e-18
1.03006092663e-05
1.83796726227e-05
1.14934380885e-05
8.47564367692e-06
7.44450920221e-06
7.12371395492e-06
7.01264069862e-06
6.95667763067e-06
6.91219893682e-06
6.86645997587e-06
6.81856479418e-06
6.76848333096e-06
6.71553281347e-06
6.65972035724e-06
6.60125996865e-06
6.53993405125e-06
6.47561538152e-06
6.40845869882e-06
6.33883130476e-06
6.26653426364e-06
6.19234037896e-06
6.11631051981e-06
6.03856529393e-06
5.96325970141e-06
5.88418670182e-06
5.80557821247e-06
5.7278711373e-06
5.6520671836e-06
5.5789342152e-06
5.50904958267e-06
5.44333748299e-06
5.3827522494e-06
5.33101749803e-06
5.28277212128e-06
5.24161205858e-06
5.208088116e-06
5.18254888103e-06
5.16533356222e-06
5.15380513108e-06
7.21720705658e-185
7.2172070566e-185
7.21720705661e-185
7.21720705662e-185
7.21720705663e-185
7.21720705664e-185
7.21720705665e-185
7.21720705666e-185
7.21720705667e-185
7.21720705668e-185
7.21720705669e-185
7.2172070567e-185
7.21720705671e-185
7.21720705672e-185
7.21720705672e-185
7.21720705673e-185
7.21720705674e-185
7.21720705675e-185
7.21720705676e-185
7.21720705677e-185
7.21720705678e-185
7.21720705678e-185
7.2172070568e-185
7.21720705746e-185
7.21720709928e-185
7.21720981079e-185
7.21737691168e-185
7.22792948808e-185
7.42372806794e-185
1.03725456041e-46
2.46553732039e-08
2.5650824314e-05
1.48125016965e-05
9.7704880388e-06
7.80535960648e-06
7.18706379517e-06
6.9936142295e-06
6.92005044029e-06
6.87237868462e-06
6.83153662808e-06
6.78914972829e-06
6.74379556386e-06
6.69534449177e-06
6.6438489763e-06
6.58925221018e-06
6.53156989283e-06
6.47062581583e-06
6.40670391822e-06
6.33997485054e-06
6.27040768295e-06
6.19869124824e-06
6.124949383e-06
6.04932837521e-06
5.97273499449e-06
5.89538389174e-06
5.82136317915e-06
5.744708548e-06
5.66953025255e-06
5.59659049726e-06
5.52643116848e-06
5.45983783945e-06
5.3977479353e-06
5.3407423881e-06
5.28924083534e-06
5.24719921517e-06
5.20880748659e-06
5.1776133536e-06
5.15413637573e-06
5.13838079127e-06
5.12806979495e-06
7.21720705499e-185
7.217207055e-185
7.217207055e-185
7.21720705501e-185
7.21720705502e-185
7.21720705502e-185
7.21720705503e-185
7.21720705504e-185
7.21720705505e-185
7.21720705505e-185
7.21720705506e-185
7.21720705507e-185
7.21720705507e-185
7.21720705508e-185
7.21720705509e-185
7.21720705509e-185
7.2172070551e-185
7.21720705511e-185
7.21720705511e-185
7.21720705512e-185
7.21720705512e-185
7.21720705513e-185
7.21720705518e-185
7.21720705774e-185
7.21720721888e-185
7.21721730629e-185
7.21781243477e-185
7.25357202765e-185
7.72668632382e-185
4.48512864204e-24
1.91688926553e-06
2.095645747e-05
1.27311466597e-05
8.91041354404e-06
7.54239351818e-06
7.11821881326e-06
6.98528966806e-06
6.92297574374e-06
6.87996200579e-06
6.83710657668e-06
6.7919570402e-06
6.74375145654e-06
6.69235692779e-06
6.63794903456e-06
6.58050528414e-06
6.52008992743e-06
6.45652903185e-06
6.39026174515e-06
6.32135489975e-06
6.24990872108e-06
6.17657177314e-06
6.10149913242e-06
6.02486249777e-06
5.95092583401e-06
5.87330042117e-06
5.79630486204e-06
5.72015389437e-06
5.64591098339e-06
5.57414083062e-06
5.50537078399e-06
5.4404172504e-06
5.3831100214e-06
5.3278941991e-06
5.27835791411e-06
5.2349247395e-06
5.19811316703e-06
5.16825363681e-06
5.14578123707e-06
5.13074769143e-06
5.12108054166e-06
7.21720705408e-185
7.21720705408e-185
7.21720705409e-185
7.21720705409e-185
7.2172070541e-185
7.21720705411e-185
7.21720705411e-185
7.21720705412e-185
7.21720705412e-185
7.21720705413e-185
7.21720705413e-185
7.21720705414e-185
7.21720705414e-185
7.21720705415e-185
7.21720705415e-185
7.21720705416e-185
7.21720705416e-185
7.21720705417e-185
7.21720705417e-185
7.21720705418e-185
7.21720705418e-185
7.21720705419e-185
7.21720705429e-185
7.21720706046e-185
7.2172074625e-185
7.21723343047e-185
7.21887883717e-185
7.28451696436e-185
1.6642643516e-71
7.48437154712e-18
1.03245729597e-05
1.83872977022e-05
1.15073851782e-05
8.50186872628e-06
7.48389462354e-06
7.1734701736e-06
7.0593072667e-06
7.00017749544e-06
6.95247806792e-06
6.90428413015e-06
6.85364035005e-06
6.80021138307e-06
6.74396843503e-06
6.68463208539e-06
6.62244909514e-06
6.55748899444e-06
6.48976219019e-06
6.41927356342e-06
6.34667619827e-06
6.27179894973e-06
6.19525323931e-06
6.12051424762e-06
6.0415835256e-06
5.96239273039e-06
5.88321930729e-06
5.80483376646e-06
5.72786932244e-06
5.65292163271e-06
5.58079091073e-06
5.5150977285e-06
5.45037449853e-06
5.39022293844e-06
5.3354223228e-06
5.28639586782e-06
5.24364723196e-06
5.20741856811e-06
5.17811167645e-06
5.15592293772e-06
5.1410030096e-06
5.13156506011e-06
7.2172070535e-185
7.2172070535e-185
7.21720705351e-185
7.21720705351e-185
7.21720705352e-185
7.21720705352e-185
7.21720705353e-185
7.21720705353e-185
7.21720705353e-185
7.21720705354e-185
7.21720705354e-185
7.21720705355e-185
7.21720705355e-185
7.21720705356e-185
7.21720705356e-185
7.21720705356e-185
7.21720705357e-185
7.21720705357e-185
7.21720705358e-185
7.21720705358e-185
7.21720705358e-185
7.21720705359e-185
7.21720705385e-185
7.21720707026e-185
7.21720812818e-185
7.21727311852e-185
7.22131487143e-185
7.32198399333e-185
4.93388955349e-71
1.37550019695e-14
2.39723870454e-05
1.66489975852e-05
1.07516657898e-05
8.32338993854e-06
7.53713704468e-06
7.29439362469e-06
7.19464605552e-06
7.13201475022e-06
7.07586877295e-06
7.01959828015e-06
6.9616672761e-06
6.90157851918e-06
6.838736643e-06
6.77333831097e-06
6.70529565772e-06
6.63453013516e-06
6.56148795837e-06
6.48623732188e-06
6.40865122474e-06
6.33277862299e-06
6.25194174199e-06
6.17023628227e-06
6.0878970904e-06
6.00560454323e-06
5.92391065969e-06
5.8431026022e-06
5.76729682695e-06
5.69076008616e-06
5.61710928559e-06
5.54717139978e-06
5.48162687532e-06
5.42089393611e-06
5.36546722395e-06
5.31608609653e-06
5.27302977695e-06
5.23991197738e-06
5.21042417347e-06
5.18814749599e-06
5.1732385348e-06
5.16377908931e-06
7.2172070531e-185
7.21720705311e-185
7.21720705311e-185
7.21720705311e-185
7.21720705312e-185
7.21720705312e-185
7.21720705312e-185
7.21720705313e-185
7.21720705313e-185
7.21720705314e-185
7.21720705314e-185
7.21720705314e-185
7.21720705315e-185
7.21720705315e-185
7.21720705315e-185
7.21720705316e-185
7.21720705316e-185
7.21720705316e-185
7.21720705317e-185
7.21720705317e-185
7.21720705317e-185
7.21720705318e-185
7.21720705371e-185
7.21720708699e-185
7.21720922399e-185
7.21734072633e-185
7.22574294997e-185
7.39494899366e-185
5.46176592351e-47
5.69428151649e-09
2.68907862599e-05
1.54496254976e-05
1.02993894793e-05
8.28806105615e-06
7.66698357633e-06
7.46310266054e-06
7.36963008664e-06
7.30013176269e-06
7.23692596112e-06
7.17290103632e-06
7.10709757217e-06
7.03905281271e-06
6.9690591816e-06
6.89680508238e-06
6.82201459259e-06
6.74501628281e-06
6.66579614673e-06
6.58797172625e-06
6.50502274793e-06
6.42057542803e-06
6.3352024727e-06
6.24902301044e-06
6.16261622967e-06
6.07646247058e-06
5.99452725349e-06
5.91065802907e-06
5.8288680464e-06
5.74981633666e-06
5.67421980966e-06
5.60245582037e-06
5.53515673089e-06
5.47641473014e-06
5.4198335653e-06
5.36948630832e-06
5.32568862431e-06
5.28880318065e-06
5.25895849298e-06
5.23635691618e-06
5.22115012105e-06
5.21157803695e-06
7.21720705281e-185
7.21720705282e-185
7.21720705282e-185
7.21720705282e-185
7.21720705283e-185
7.21720705283e-185
7.21720705283e-185
7.21720705284e-185
7.21720705284e-185
7.21720705284e-185
7.21720705285e-185
7.21720705285e-185
7.21720705285e-185
7.21720705286e-185
7.21720705286e-185
7.21720705286e-185
7.21720705286e-185
7.21720705287e-185
7.21720705287e-185
7.21720705287e-185
7.21720705288e-185
7.21720705289e-185
7.2172070539e-185
7.21720711884e-185
7.21721129845e-185
7.21746502069e-185
7.23329027776e-185
7.49708533779e-185
1.13984851951e-35
1.70921112813e-07
2.42362406638e-05
1.45491204792e-05
1.00406386946e-05
8.34266216073e-06
7.8480190608e-06
7.67157209753e-06
7.57864029417e-06
7.50327030047e-06
7.43214612145e-06
7.3596192892e-06
7.28532534598e-06
7.20895380192e-06
7.13087366463e-06
7.05064315132e-06
6.97205180592e-06
6.88791552713e-06
6.80196758298e-06
6.71449661301e-06
6.62541853049e-06
6.53532894567e-06
6.44434048636e-06
6.35314200759e-06
6.26543732552e-06
6.17476686244e-06
6.0856016946e-06
5.99822030694e-06
5.91303144907e-06
5.83108157564e-06
5.7525857053e-06
5.68191029227e-06
5.6124664684e-06
5.5486459468e-06
5.49073887493e-06
5.43908115157e-06
5.39407488946e-06
5.35612262304e-06
5.32558630879e-06
5.30245798176e-06
5.28689191885e-06
5.27727022343e-06
7.21720705259e-185
7.2172070526e-185
7.2172070526e-185
7.2172070526e-185
7.21720705261e-185
7.21720705261e-185
7.21720705261e-185
7.21720705262e-185
7.21720705262e-185
7.21720705262e-185
7.21720705262e-185
7.21720705263e-185
7.21720705263e-185
7.21720705263e-185
7.21720705264e-185
7.21720705264e-185
7.21720705264e-185
7.21720705264e-185
7.21720705265e-185
7.21720705265e-185
7.21720705265e-185
7.21720705268e-185
7.21720705447e-185
7.21720716848e-185
7.21721441763e-185
7.21764902665e-185
7.24421448419e-185
7.62569265624e-185
6.79317314191e-28
8.21166820118e-07
2.25095878693e-05
1.39135597806e-05
9.9193066029e-06
8.49225219565e-06
8.07900933833e-06
7.91200352059e-06
7.81848109686e-06
7.73886669674e-06
7.65922337999e-06
7.5775051335e-06
7.49394349812e-06
7.40849760548e-06
7.32522298264e-06
7.23641327996e-06
7.14620836802e-06
7.05418606404e-06
6.9609847711e-06
6.86633409609e-06
6.77058620247e-06
6.67424931479e-06
6.5805319381e-06
6.48375017517e-06
6.38722141303e-06
6.29204823321e-06
6.19836633555e-06
6.10667337437e-06
6.02112615776e-06
5.93570629346e-06
5.85419027749e-06
5.7772581397e-06
5.70562283369e-06
5.63963543835e-06
5.57961787198e-06
5.52970409836e-06
5.48333317716e-06
5.44424577593e-06
5.41258856518e-06
5.38881735086e-06
5.37275300239e-06
5.36285824005e-06
7.21720705242e-185
7.21720705243e-185
7.21720705243e-185
7.21720705243e-185
7.21720705243e-185
7.21720705244e-185
7.21720705244e-185
7.21720705244e-185
7.21720705244e-185
7.21720705245e-185
7.21720705245e-185
7.21720705245e-185
7.21720705245e-185
7.21720705246e-185
7.21720705246e-185
7.21720705246e-185
7.21720705246e-185
7.21720705247e-185
7.21720705247e-185
7.21720705247e-185
7.21720705247e-185
7.21720705252e-185
7.21720705547e-185
7.21720724067e-185
7.21721879799e-185
7.21789847525e-185
7.25828476003e-185
7.78433362654e-185
3.01590842065e-22
2.36867437504e-06
2.12022047475e-05
1.34503438373e-05
9.93013009087e-06
8.70044653799e-06
8.33917969542e-06
8.20092378286e-06
8.09737102919e-06
8.00743325296e-06
7.91733460689e-06
7.8254646999e-06
7.73175361242e-06
7.64006334573e-06
7.54346384883e-06
7.44549652767e-06
7.34646332193e-06
7.24588011317e-06
7.14447482483e-06
7.04185487631e-06
6.94241215504e-06
6.83896078243e-06
6.7354561211e-06
6.63232692575e-06
6.53021067347e-06
6.42960599489e-06
6.3342595539e-06
6.23790615117e-06
6.14495657117e-06
6.05560890841e-06
5.97061982618e-06
5.89071326597e-06
5.8194165296e-06
5.75092546178e-06
5.68890062016e-06
5.63364703833e-06
5.58570265408e-06
5.54539960797e-06
5.51285595332e-06
5.48823918938e-06
5.47157902431e-06
5.46137852661e-06
7.21720705228e-185
7.21720705229e-185
7.21720705229e-185
7.21720705229e-185
7.21720705229e-185
7.2172070523e-185
7.2172070523e-185
7.2172070523e-185
7.2172070523e-185
7.21720705231e-185
7.21720705231e-185
7.21720705231e-185
7.21720705231e-185
7.21720705232e-185
7.21720705232e-185
7.21720705232e-185
7.21720705232e-185
7.21720705232e-185
7.21720705233e-185
7.21720705233e-185
7.21720705233e-185
7.21720705241e-185
7.21720705696e-185
7.21720733679e-185
7.21722436979e-185
7.21822419501e-185
7.27386320969e-185
6.22931855189e-72
2.06631941181e-19
5.50942510521e-06
2.01455377025e-05
1.30644734422e-05
9.99587781101e-06
8.97918716385e-06
8.67185000405e-06
8.5276877817e-06
8.4119198538e-06
8.30935130308e-06
8.20661991149e-06
8.10650461017e-06
8.00174237106e-06
7.89557552391e-06
7.78867042919e-06
7.68063131445e-06
7.57166714338e-06
7.46176025719e-06
7.35495670795e-06
7.24383846255e-06
7.13286511009e-06
7.02174225975e-06
6.91111162963e-06
6.80488048538e-06
6.69629541319e-06
6.58981241616e-06
6.48546472752e-06
6.384251632e-06
6.28666170343e-06
6.19651848763e-06
6.10773052287e-06
6.0241285554e-06
5.94659778336e-06
5.87536565539e-06
5.81075217298e-06
5.75708557677e-06
5.7072212328e-06
5.66540683014e-06
5.63159963779e-06
5.6060314653e-06
5.58870154159e-06
5.57816410679e-06
7.21720705217e-185
7.21720705217e-185
7.21720705218e-185
7.21720705218e-185
7.21720705218e-185
7.21720705218e-185
7.21720705218e-185
7.21720705219e-185
7.21720705219e-185
7.21720705219e-185
7.21720705219e-185
7.2172070522e-185
7.2172070522e-185
7.2172070522e-185
7.2172070522e-185
7.2172070522e-185
7.21720705221e-185
7.21720705221e-185
7.21720705221e-185
7.21720705221e-185
7.21720705222e-185
7.21720705233e-185
7.21720705949e-185
7.21720752636e-185
7.2172375398e-185
7.21913011039e-185
7.29071028989e-185
1.96660892782e-71
1.48272470646e-17
1.05941552804e-05
1.92144830512e-05
1.28173982799e-05
1.01247820334e-05
9.30951444202e-06
9.03621296272e-06
8.88834166118e-06
8.76636444136e-06
8.6447402884e-06
8.53127256144e-06
8.41441772868e-06
8.29678294174e-06
8.17863037865e-06
8.05989068261e-06
7.94079474678e-06
7.82465074141e-06
7.70457423302e-06
7.58441533708e-06
7.46439879462e-06
7.34445169271e-06
7.22883040333e-06
7.1101547332e-06
6.99316053737e-06
6.87783148079e-06
6.76495763256e-06
6.65835268075e-06
6.55159295907e-06
6.44880532631e-06
6.35076482108e-06
6.25756471662e-06
6.17389507453e-06
6.09287985842e-06
6.01846452256e-06
5.95130895519e-06
5.89177915412e-06
5.84014723e-06
5.79670343671e-06
5.76157591859e-06
5.7349271506e-06
5.71681631426e-06
5.70590598054e-06
7.21720705208e-185
7.21720705208e-185
7.21720705208e-185
7.21720705208e-185
7.21720705208e-185
7.21720705209e-185
7.21720705209e-185
7.21720705209e-185
7.21720705209e-185
7.2172070521e-185
7.2172070521e-185
7.2172070521e-185
7.2172070521e-185
7.2172070521e-185
7.2172070521e-185
7.21720705211e-185
7.21720705211e-185
7.21720705211e-185
7.21720705211e-185
7.21720705211e-185
7.21720705212e-185
7.21720705232e-185
7.21720706555e-185
7.21720792557e-185
7.21726130764e-185
7.22056664905e-185
7.31323013412e-185
3.87224930759e-71
8.64145325286e-16
1.81631339702e-05
1.84162777126e-05
1.26736063193e-05
1.03441766568e-05
9.67918137838e-06
9.44467198711e-06
9.28973252115e-06
9.15300957951e-06
9.01803518029e-06
8.88487293764e-06
8.7522646287e-06
8.6205172003e-06
8.48886048224e-06
8.36089827244e-06
8.22935133476e-06
8.09793611745e-06
7.96689313397e-06
7.83612882225e-06
7.70963491179e-06
7.58010273424e-06
7.45202325131e-06
7.32499615203e-06
7.20029233051e-06
7.08124562686e-06
6.96115666797e-06
6.84480422238e-06
6.73213399989e-06
6.62760765067e-06
6.52450088753e-06
6.42678815278e-06
6.33548274707e-06
6.25079274567e-06
6.17300238086e-06
6.10654917415e-06
6.04447448943e-06
5.99068787878e-06
5.94537483688e-06
5.90872356378e-06
5.88087212081e-06
5.86189339116e-06
5.85054453682e-06
7.217207052e-185
7.217207052e-185
7.217207052e-185
7.217207052e-185
7.217207052e-185
7.21720705201e-185
7.21720705201e-185
7.21720705201e-185
7.21720705201e-185
7.21720705201e-185
7.21720705202e-185
7.21720705202e-185
7.21720705202e-185
7.21720705202e-185
7.21720705202e-185
7.21720705202e-185
7.21720705203e-185
7.21720705203e-185
7.21720705203e-185
7.21720705203e-185
7.21720705204e-185
7.2172070524e-185
7.21720707578e-185
7.21720856338e-185
7.21729860579e-185
7.22281968001e-185
7.3475250506e-185
6.60970871385e-71
1.42497273213e-12
2.61346276176e-05
1.76962876903e-05
1.26242727915e-05
1.06306097933e-05
1.00922843844e-05
9.88952525319e-06
9.72577883649e-06
9.57220617885e-06
9.41905418646e-06
9.26841211241e-06
9.11962227362e-06
8.9720422621e-06
8.82926312669e-06
8.68372740657e-06
8.5387987318e-06
8.39487576668e-06
8.25531225686e-06
8.11284513895e-06
7.97204060105e-06
7.832278013e-06
7.69819513179e-06
7.56231671377e-06
7.42869424512e-06
7.29828043989e-06
7.17087773489e-06
7.05138823103e-06
6.93229520477e-06
6.81844095872e-06
6.70981602772e-06
6.61116713258e-06
6.51542792543e-06
6.42667795321e-06
6.34540824942e-06
6.27232328276e-06
6.20760704584e-06
6.15152214312e-06
6.10768820036e-06
6.06952769322e-06
6.04046427212e-06
6.02062011647e-06
6.0089062103e-06
7.21720705193e-185
7.21720705193e-185
7.21720705193e-185
7.21720705193e-185
7.21720705193e-185
7.21720705194e-185
7.21720705194e-185
7.21720705194e-185
7.21720705194e-185
7.21720705194e-185
7.21720705194e-185
7.21720705195e-185
7.21720705195e-185
7.21720705195e-185
7.21720705195e-185
7.21720705195e-185
7.21720705195e-185
7.21720705196e-185
7.21720705196e-185
7.21720705196e-185
7.21720705197e-185
7.21720705261e-185
7.21720709318e-185
7.21720966396e-185
7.21736571514e-185
7.22712232914e-185
7.41714295833e-185
7.64489327131e-47
9.17939872213e-09
2.79318735901e-05
1.70931521896e-05
1.26026825108e-05
1.10112764011e-05
1.05687741193e-05
1.03727806171e-05
1.01976266342e-05
1.00238006163e-05
9.85186564586e-06
9.68248482228e-06
9.51962214526e-06
9.35476653041e-06
9.19213685756e-06
9.03114894744e-06
8.87556223165e-06
8.71782967056e-06
8.56145943161e-06
8.40705273329e-06
8.25809428987e-06
8.1075961046e-06
7.95918747521e-06
7.813786339e-06
7.67507377071e-06
7.53575917778e-06
7.40078895291e-06
7.26992437732e-06
7.14822486314e-06
7.02815447092e-06
6.91380726475e-06
6.80630670457e-06
6.70588131691e-06
6.61667494904e-06
6.53179223755e-06
6.45515686956e-06
6.38751638568e-06
6.32893298946e-06
6.2795655795e-06
6.23969416044e-06
6.20928190012e-06
6.19222877067e-06
6.17990544254e-06
7.21720705187e-185
7.21720705187e-185
7.21720705187e-185
7.21720705187e-185
7.21720705187e-185
7.21720705188e-185
7.21720705188e-185
7.21720705188e-185
7.21720705188e-185
7.21720705188e-185
7.21720705188e-185
7.21720705188e-185
7.21720705189e-185
7.21720705189e-185
7.21720705189e-185
7.21720705189e-185
7.21720705189e-185
7.21720705189e-185
7.2172070519e-185
7.2172070519e-185
7.21720705192e-185
7.21720705309e-185
7.21720712755e-185
7.2172118474e-185
7.21749500743e-185
7.23487485333e-185
7.52420182504e-185
1.47835949669e-35
1.75420838666e-07
2.5438221516e-05
1.65529789826e-05
1.27002616523e-05
1.14128312323e-05
1.10791656535e-05
1.08983516375e-05
1.07056144053e-05
1.05094493403e-05
1.03154379023e-05
1.01295362255e-05
9.94324284112e-06
9.76020797243e-06
9.58001182807e-06
9.40637867895e-06
9.2314110972e-06
9.05868847818e-06
8.89247873351e-06
8.72465590784e-06
8.55958314499e-06
8.39743917068e-06
8.24211478967e-06
8.08606515687e-06
7.93402781856e-06
7.78985067445e-06
7.64644480508e-06
7.50800729398e-06
7.37510482158e-06
7.25237954732e-06
7.13207785652e-06
7.0190271601e-06
6.9136204804e-06
6.81632572461e-06
6.73119843274e-06
6.65127707705e-06
6.58059899648e-06
6.5193383327e-06
6.46772796631e-06
6.4259268368e-06
6.39399517921e-06
6.37204552467e-06
6.35920898556e-06
7.21720705181e-185
7.21720705182e-185
7.21720705182e-185
7.21720705182e-185
7.21720705182e-185
7.21720705182e-185
7.21720705182e-185
7.21720705183e-185
7.21720705183e-185
7.21720705183e-185
7.21720705183e-185
7.21720705183e-185
7.21720705183e-185
7.21720705183e-185
7.21720705184e-185
7.21720705184e-185
7.21720705184e-185
7.21720705184e-185
7.21720705184e-185
7.21720705184e-185
7.21720705188e-185
7.21720705408e-185
7.21720719332e-185
7.21721593467e-185
7.21773346023e-185
7.24868641864e-185
7.68650516891e-185
2.02675646008e-27
8.84825833833e-07
2.37750453571e-05
1.61590434815e-05
1.29147745205e-05
1.1902337765e-05
1.16418746059e-05
1.14560935005e-05
1.12424516344e-05
1.10244318011e-05
1.0812703003e-05
1.06010482342e-05
1.03941401666e-05
1.01952749601e-05
9.99649909906e-06
9.80112998449e-06
9.61322647745e-06
9.42495195928e-06
9.23971144748e-06
9.05790177759e-06
8.88342004138e-06
8.70881361153e-06
8.53786095935e-06
8.37506303749e-06
8.21278323903e-06
8.05516209289e-06
7.9070613152e-06
7.76043106149e-06
7.6201117683e-06
7.48668055447e-06
7.36406115099e-06
7.24542626076e-06
7.13473482612e-06
7.03262132523e-06
6.93960881807e-06
6.86002839509e-06
6.78605716872e-06
6.72197442773e-06
6.66793905751e-06
6.62414262079e-06
6.59081459476e-06
6.56776192215e-06
6.55419304903e-06
7.21720705177e-185
7.21720705177e-185
7.21720705177e-185
7.21720705177e-185
7.21720705177e-185
7.21720705177e-185
7.21720705178e-185
7.21720705178e-185
7.21720705178e-185
7.21720705178e-185
7.21720705178e-185
7.21720705178e-185
7.21720705179e-185
7.21720705179e-185
7.21720705179e-185
7.21720705179e-185
7.21720705179e-185
7.21720705179e-185
7.21720705179e-185
7.2172070518e-185
7.21720705186e-185
7.21720705605e-185
7.21720731392e-185
7.21722304348e-185
7.21812719044e-185
7.26970035902e-185
1.20045434769e-72
8.985045938e-21
3.07334642669e-06
2.24717971732e-05
1.58917566142e-05
1.3204715787e-05
1.24850509408e-05
1.2264124579e-05
1.2052109364e-05
1.18135219143e-05
1.15745663395e-05
1.13348692959e-05
1.11000548818e-05
1.08747850151e-05
1.06507510852e-05
1.04315278258e-05
1.02213610648e-05
1.00119024724e-05
9.80660079436e-06
9.60976410755e-06
9.41320816783e-06
9.22071086702e-06
9.03696773816e-06
8.85393443426e-06
8.6754457267e-06
8.50668904755e-06
8.33918912341e-06
8.1778425294e-06
8.02700214389e-06
7.87890520012e-06
7.73795318793e-06
7.60512686837e-06
7.48448290641e-06
7.36831489579e-06
7.26147934838e-06
7.16424023026e-06
7.07677821055e-06
7.00348886307e-06
6.93658662169e-06
6.88013528915e-06
6.83437139413e-06
6.79922740786e-06
6.77497469321e-06
6.76069136922e-06
7.21720705173e-185
7.21720705173e-185
7.21720705173e-185
7.21720705173e-185
7.21720705173e-185
7.21720705173e-185
7.21720705173e-185
7.21720705174e-185
7.21720705174e-185
7.21720705174e-185
7.21720705174e-185
7.21720705174e-185
7.21720705174e-185
7.21720705174e-185
7.21720705175e-185
7.21720705175e-185
7.21720705175e-185
7.21720705175e-185
7.21720705175e-185
7.21720705175e-185
7.21720705188e-185
7.2172070597e-185
7.21720755299e-185
7.21723866466e-185
7.21916088325e-185
7.29506039666e-185
1.88396330403e-71
8.10927172536e-18
8.16936483221e-06
2.13499239662e-05
1.57425848366e-05
1.35924730101e-05
1.31105974714e-05
1.29359868496e-05
1.26937700758e-05
1.24234088843e-05
1.21496883796e-05
1.18829320367e-05
1.16269034713e-05
1.13741358586e-05
1.11321618404e-05
1.08918430479e-05
1.06578488078e-05
1.04335610526e-05
1.02106027022e-05
9.99318249665e-06
9.78505966925e-06
9.57819944212e-06
9.38082423319e-06
9.18493828067e-06
8.99464794593e-06
8.81479312647e-06
8.63698527275e-06
8.46589584078e-06
8.30221800846e-06
8.15008009341e-06
8.00183913526e-06
7.86214511048e-06
7.73540556092e-06
7.61379151719e-06
7.50207162015e-06
7.40031597146e-06
7.30882170694e-06
7.23229487821e-06
7.16236850232e-06
7.10352668502e-06
7.0556739933e-06
7.01899912402e-06
6.99342666233e-06
6.9783632144e-06
7.21720705169e-185
7.21720705169e-185
7.21720705169e-185
7.21720705169e-185
7.21720705169e-185
7.2172070517e-185
7.2172070517e-185
7.2172070517e-185
7.2172070517e-185
7.2172070517e-185
7.2172070517e-185
7.2172070517e-185
7.2172070517e-185
7.21720705171e-185
7.21720705171e-185
7.21720705171e-185
7.21720705171e-185
7.21720705171e-185
7.21720705171e-185
7.21720705172e-185
7.21720705201e-185
7.2172070706e-185
7.21720825165e-185
7.21727976486e-185
7.22159230159e-185
7.33282503077e-185
4.70177254467e-71
3.16412646887e-15
1.79014706157e-05
2.03824509803e-05
1.5731345622e-05
1.41086969273e-05
1.38214800909e-05
1.36329477869e-05
1.33614570676e-05
1.30562706668e-05
1.2751389543e-05
1.24596039026e-05
1.2173088078e-05
1.18995893999e-05
1.16297730673e-05
1.13719304684e-05
1.11168562922e-05
1.08686353893e-05
1.06317364637e-05
1.0396670293e-05
1.01725764998e-05
9.95035799555e-06
9.73452552389e-06
9.52974705766e-06
9.32698840559e-06
9.1315136991e-06
8.94756125613e-06
8.7667366466e-06
8.5935233986e-06
8.43341472228e-06
8.27767487311e-06
8.13065431893e-06
7.99354095596e-06
7.87054557826e-06
7.75357778138e-06
7.6473483279e-06
7.55197958679e-06
7.47209605796e-06
7.39905195733e-06
7.337380834e-06
7.28716729451e-06
7.24875119429e-06
7.22177126902e-06
7.20583847834e-06
7.21720705166e-185
7.21720705166e-185
7.21720705166e-185
7.21720705166e-185
7.21720705166e-185
7.21720705166e-185
7.21720705166e-185
7.21720705166e-185
7.21720705167e-185
7.21720705167e-185
7.21720705167e-185
7.21720705167e-185
7.21720705167e-185
7.21720705167e-185
7.21720705167e-185
7.21720705167e-185
7.21720705168e-185
7.21720705168e-185
7.21720705168e-185
7.21720705169e-185
7.21720705238e-185
7.21720709515e-185
7.21720972911e-185
7.21736442243e-185
7.22664412351e-185
7.41318240056e-185
5.20072166282e-47
2.29638431833e-09
2.88042191892e-05
1.95945606568e-05
1.58616094213e-05
1.47507044118e-05
1.45797687468e-05
1.43796911703e-05
1.40587132478e-05
1.37156624083e-05
1.33817842709e-05
1.30553159364e-05
1.27445143486e-05
1.24401101675e-05
1.21495943102e-05
1.18640234171e-05
1.1591981224e-05
1.13232280709e-05
1.1067469469e-05
1.081431581e-05
1.05691982029e-05
1.03355792778e-05
1.01050369072e-05
9.88663498498e-06
9.67145545986e-06
9.46376605662e-06
9.26906469016e-06
9.07806651471e-06
8.89615002552e-06
8.72766934106e-06
8.56397724652e-06
8.40997752946e-06
8.26654093688e-06
8.13817330152e-06
8.01594714364e-06
7.90470497491e-06
7.80516826117e-06
7.72173069231e-06
7.64565284175e-06
7.58148857404e-06
7.52915670875e-06
7.48882107002e-06
7.46042140157e-06
7.44338402998e-06
7.21720705163e-185
7.21720705163e-185
7.21720705163e-185
7.21720705163e-185
7.21720705163e-185
7.21720705163e-185
7.21720705163e-185
7.21720705163e-185
7.21720705164e-185
7.21720705164e-185
7.21720705164e-185
7.21720705164e-185
7.21720705164e-185
7.21720705164e-185
7.21720705164e-185
7.21720705164e-185
7.21720705165e-185
7.21720705165e-185
7.21720705165e-185
7.21720705168e-185
7.21720705331e-185
7.21720715512e-185
7.2172134525e-185
7.21758339268e-185
7.23961246171e-185
7.58978693667e-185
3.69390575896e-33
2.44511062213e-07
2.68676427883e-05
1.89673727178e-05
1.61322738747e-05
1.54640419946e-05
1.53816521216e-05
1.51394727285e-05
1.47767503305e-05
1.43998303607e-05
1.40277789207e-05
1.36740553906e-05
1.33291070492e-05
1.30014909537e-05
1.26814290792e-05
1.23761763416e-05
1.20764839916e-05
1.17913296968e-05
1.15109487491e-05
1.12440809785e-05
1.09815423849e-05
1.07322787296e-05
1.04864816521e-05
1.0254367401e-05
1.00263402023e-05
9.80716146045e-06
9.60118104986e-06
9.4000788073e-06
9.20863410502e-06
9.031536846e-06
8.86014243366e-06
8.69910375656e-06
8.55377301648e-06
8.41494218829e-06
8.28750899862e-06
8.17183690726e-06
8.06818008822e-06
7.98118896081e-06
7.90186639467e-06
7.83481232333e-06
7.78021024299e-06
7.73802531996e-06
7.70796557765e-06
7.68987054033e-06
7.2172070516e-185
7.2172070516e-185
7.2172070516e-185
7.2172070516e-185
7.2172070516e-185
7.2172070516e-185
7.21720705161e-185
7.21720705161e-185
7.21720705161e-185
7.21720705161e-185
7.21720705161e-185
7.21720705161e-185
7.21720705161e-185
7.21720705161e-185
7.21720705162e-185
7.21720705162e-185
7.21720705162e-185
7.21720705162e-185
7.21720705162e-185
7.21720705169e-185
7.21720705585e-185
7.21720731042e-185
7.21722273075e-185
7.21810465152e-185
7.26804247205e-185
7.91029805989e-185
6.02402786816e-22
1.99402538688e-06
2.46261476295e-05
1.86863184337e-05
1.65973211648e-05
1.62960576745e-05
1.62273245604e-05
1.59267193294e-05
1.55172976701e-05
1.50969837678e-05
1.46944668434e-05
1.4303846651e-05
1.39331935233e-05
1.35772859389e-05
1.32296559075e-05
1.28995594335e-05
1.25769550012e-05
1.22701572275e-05
1.19694372759e-05
1.16838153599e-05
1.14033843346e-05
1.11378329792e-05
1.0877315649e-05
1.06312157683e-05
1.0390026281e-05
1.01584721811e-05
9.94191787009e-06
9.73060791889e-06