/*--------------------------------*- C++ -*----------------------------------*\
| =========                 |                                                 |
| \\      /  F ield         | foam-extend: Open Source CFD                    |
|  \\    /   O peration     | Version:     4.1                                |
|   \\  /    A nd           | Web:         http://www.foam-extend.org         |
|    \\/     M anipulation  |                                                 |
\*---------------------------------------------------------------------------*/
FoamFile
{
    version     2.0;
    format      ascii;
    class       volScalarField;
    location    "0.0003";
    object      NO;
}
// * * * * * * * * * * * * * * * * * * * * * * * * * * * * * * * * * * * * * //

dimensions      [0 0 0 0 0 0 0];

internalField   nonuniform List<scalar> 
8400
(
2.19526275562e-21
2.19526275563e-21
2.19526275564e-21
2.19526275564e-21
2.19526275565e-21
2.19526275565e-21
2.19526275566e-21
2.19526275566e-21
2.19526275567e-21
2.19526275567e-21
2.19526275568e-21
2.19526275568e-21
2.19526275569e-21
2.19526275569e-21
2.1952627557e-21
2.1952627557e-21
2.1952627557e-21
2.19526275571e-21
2.19526275571e-21
2.19526275572e-21
2.19526275572e-21
2.19526275572e-21
2.19526275573e-21
2.19526275573e-21
2.19526275589e-21
2.19526276563e-21
2.19526338237e-21
2.19530026809e-21
2.19756931986e-21
2.23317269609e-21
0.000280248376766
0.00303732353667
2.03716391526e-05
2.5747337979e-06
1.01054784488e-06
6.27814616155e-07
5.19316653592e-07
4.80732752719e-07
4.65730195337e-07
4.57596006788e-07
4.51001206861e-07
4.44705884177e-07
4.38441877244e-07
4.32150000001e-07
4.25808573909e-07
4.19356729758e-07
4.13137033256e-07
4.06393673917e-07
3.99497678045e-07
3.92427369294e-07
3.8518144895e-07
3.77786926957e-07
3.70589212398e-07
3.62955574812e-07
3.55255999963e-07
3.47528870658e-07
3.39870918407e-07
3.32324749845e-07
3.2527447694e-07
3.18184814994e-07
3.11408088491e-07
3.05074251716e-07
2.99222073031e-07
2.93920533191e-07
2.89228822747e-07
2.85270134424e-07
2.82026717961e-07
2.79866148633e-07
2.78204811166e-07
2.76456949849e-07
2.19526275452e-21
2.19526275452e-21
2.19526275452e-21
2.19526275453e-21
2.19526275453e-21
2.19526275453e-21
2.19526275453e-21
2.19526275453e-21
2.19526275454e-21
2.19526275454e-21
2.19526275454e-21
2.19526275454e-21
2.19526275454e-21
2.19526275455e-21
2.19526275455e-21
2.19526275455e-21
2.19526275455e-21
2.19526275455e-21
2.19526275455e-21
2.19526275456e-21
2.19526275456e-21
2.19526275456e-21
2.19526275456e-21
2.19526275458e-21
2.19526275537e-21
2.19526280676e-21
2.19526610101e-21
2.19547344882e-21
2.20354623299e-21
4.14763458796e-09
0.0252095893006
0.00124653607261
5.80195153232e-06
1.52777187485e-06
7.45614576456e-07
5.35721786767e-07
4.70899223982e-07
4.49881156217e-07
4.41665097898e-07
4.36387873658e-07
4.31339379486e-07
4.26143799648e-07
4.20774740429e-07
4.15146263425e-07
4.09258003169e-07
4.03151370479e-07
3.96803381081e-07
3.90200613259e-07
3.83366264761e-07
3.76344350558e-07
3.69123251622e-07
3.61785453768e-07
3.54336666895e-07
3.46790099391e-07
3.39555356449e-07
3.32028190973e-07
3.24623967244e-07
3.17378741125e-07
3.10381832268e-07
3.03695180607e-07
2.97361849084e-07
2.91455266057e-07
2.86048324952e-07
2.81473795337e-07
2.77234122355e-07
2.73630276118e-07
2.70720863023e-07
2.68502892181e-07
2.67004010697e-07
2.65825516783e-07
2.19526275412e-21
2.19526275412e-21
2.19526275412e-21
2.19526275412e-21
2.19526275412e-21
2.19526275413e-21
2.19526275413e-21
2.19526275413e-21
2.19526275413e-21
2.19526275413e-21
2.19526275413e-21
2.19526275413e-21
2.19526275413e-21
2.19526275413e-21
2.19526275414e-21
2.19526275414e-21
2.19526275414e-21
2.19526275414e-21
2.19526275414e-21
2.19526275414e-21
2.19526275414e-21
2.19526275414e-21
2.19526275415e-21
2.19526275423e-21
2.19526275935e-21
2.19526309144e-21
2.1952835569e-21
2.19657596996e-21
2.22055614618e-21
9.93377147618e-06
0.00434216681168
4.38958638999e-05
2.93529433745e-06
1.04743597435e-06
6.13495699315e-07
4.90071390851e-07
4.51216620834e-07
4.38426410806e-07
4.32199002243e-07
4.27529903047e-07
4.22891028555e-07
4.17991124022e-07
4.12822496887e-07
4.07381611423e-07
4.01660201604e-07
3.95680743281e-07
3.89422534404e-07
3.82916097221e-07
3.76185694257e-07
3.69233839842e-07
3.62137168835e-07
3.54910727457e-07
3.4756893559e-07
3.40205942894e-07
3.32841048548e-07
3.25868034429e-07
3.18712837965e-07
3.11765562991e-07
3.05088679366e-07
2.98724897487e-07
2.92736988576e-07
2.87196844883e-07
2.82155740987e-07
2.77628226043e-07
2.73949139531e-07
2.7061775403e-07
2.67914245862e-07
2.65895547538e-07
2.64541432459e-07
2.63508095825e-07
2.19526275392e-21
2.19526275392e-21
2.19526275393e-21
2.19526275393e-21
2.19526275393e-21
2.19526275393e-21
2.19526275393e-21
2.19526275393e-21
2.19526275393e-21
2.19526275393e-21
2.19526275393e-21
2.19526275393e-21
2.19526275393e-21
2.19526275393e-21
2.19526275394e-21
2.19526275394e-21
2.19526275394e-21
2.19526275394e-21
2.19526275394e-21
2.19526275394e-21
2.19526275394e-21
2.19526275394e-21
2.19526275395e-21
2.19526275426e-21
2.195262774e-21
2.19526400944e-21
2.19533689702e-21
2.19971650662e-21
2.25766056425e-21
0.00788337079961
0.00211418735058
1.02102773089e-05
1.96640432115e-06
8.43048055059e-07
5.59158981554e-07
4.74305658105e-07
4.4799487687e-07
4.3831122761e-07
4.33021656171e-07
4.28230548679e-07
4.23318511935e-07
4.18129363431e-07
4.12668202257e-07
4.06938504523e-07
4.00940014537e-07
3.94696266433e-07
3.88191372846e-07
3.81470193221e-07
3.74545694289e-07
3.67432965231e-07
3.60200287535e-07
3.52866691622e-07
3.45452348909e-07
3.38376081344e-07
3.31012767903e-07
3.23784763931e-07
3.16704062141e-07
3.09866033294e-07
3.03315326957e-07
2.97094260525e-07
2.91267107124e-07
2.86167705177e-07
2.81294449113e-07
2.76950352009e-07
2.73153322548e-07
2.69965255671e-07
2.67381454278e-07
2.65449652086e-07
2.64161899549e-07
2.63205927551e-07
2.19526275381e-21
2.19526275381e-21
2.19526275381e-21
2.19526275381e-21
2.19526275381e-21
2.19526275382e-21
2.19526275382e-21
2.19526275382e-21
2.19526275382e-21
2.19526275382e-21
2.19526275382e-21
2.19526275382e-21
2.19526275382e-21
2.19526275382e-21
2.19526275382e-21
2.19526275382e-21
2.19526275382e-21
2.19526275382e-21
2.19526275382e-21
2.19526275382e-21
2.19526275382e-21
2.19526275383e-21
2.19526275384e-21
2.19526275459e-21
2.19526280383e-21
2.19526598423e-21
2.19546750327e-21
2.20350644746e-21
4.1115410038e-09
0.0251864832705
0.00124562099927
5.79717191504e-06
1.52894732762e-06
7.48454300789e-07
5.39832490644e-07
4.76187087307e-07
4.5502055572e-07
4.4658706642e-07
4.40965059827e-07
4.35614088083e-07
4.30109856026e-07
4.2435844409e-07
4.18359710937e-07
4.12103041649e-07
4.05601989726e-07
3.98870438306e-07
3.91916601341e-07
3.84751584138e-07
3.77446087739e-07
3.6998181966e-07
3.62421938056e-07
3.55115422688e-07
3.47467330767e-07
3.39871142618e-07
3.32351344978e-07
3.24981048607e-07
3.17815410647e-07
3.10901577588e-07
3.04304988317e-07
2.98352185775e-07
2.92533576744e-07
2.87178623078e-07
2.82333979574e-07
2.78021387977e-07
2.74291594091e-07
2.71139252652e-07
2.6860790763e-07
2.66692321047e-07
2.65403414974e-07
2.64476371001e-07
2.19526275374e-21
2.19526275374e-21
2.19526275374e-21
2.19526275374e-21
2.19526275374e-21
2.19526275374e-21
2.19526275374e-21
2.19526275374e-21
2.19526275375e-21
2.19526275375e-21
2.19526275375e-21
2.19526275375e-21
2.19526275375e-21
2.19526275375e-21
2.19526275375e-21
2.19526275375e-21
2.19526275375e-21
2.19526275375e-21
2.19526275375e-21
2.19526275375e-21
2.19526275375e-21
2.19526275375e-21
2.19526275378e-21
2.19526275579e-21
2.19526288536e-21
2.19527084497e-21
2.19576585339e-21
2.20809517307e-21
1.26863817604e-08
0.023556939588
0.000563292275931
4.11110889863e-06
1.2936076667e-06
7.02419122675e-07
5.38449766349e-07
4.87281226146e-07
4.6948398042e-07
4.61092738497e-07
4.54606548582e-07
4.48355663886e-07
4.42006370968e-07
4.35492134183e-07
4.28751884852e-07
4.21800532153e-07
4.14633863151e-07
4.07249502723e-07
3.99700228853e-07
3.9200395987e-07
3.84140713501e-07
3.76530211107e-07
3.68493410626e-07
3.60453211533e-07
3.52431564028e-07
3.44494308112e-07
3.36693836247e-07
3.29050772161e-07
3.21956896625e-07
3.14857415925e-07
3.0809083815e-07
3.01722662773e-07
2.95803377419e-07
2.90358184106e-07
2.8543206168e-07
2.81072709513e-07
2.77286310956e-07
2.74406067893e-07
2.71839822542e-07
2.69906291106e-07
2.68618715784e-07
2.67682916411e-07
2.19526275369e-21
2.19526275369e-21
2.19526275369e-21
2.19526275369e-21
2.19526275369e-21
2.19526275369e-21
2.1952627537e-21
2.1952627537e-21
2.1952627537e-21
2.1952627537e-21
2.1952627537e-21
2.1952627537e-21
2.1952627537e-21
2.1952627537e-21
2.1952627537e-21
2.1952627537e-21
2.1952627537e-21
2.1952627537e-21
2.1952627537e-21
2.1952627537e-21
2.1952627537e-21
2.1952627537e-21
2.19526275377e-21
2.19526275784e-21
2.19526301957e-21
2.19527912515e-21
2.19630817655e-21
2.21703146652e-21
5.1173013683e-06
0.00529014299261
7.29509148853e-05
3.25877325996e-06
1.15927558142e-06
6.83325052496e-07
5.48712199895e-07
5.04975806675e-07
4.88949855943e-07
4.79987441779e-07
4.72684230908e-07
4.65503440774e-07
4.58213468917e-07
4.50748533808e-07
4.43150863406e-07
4.35388229577e-07
4.27428375197e-07
4.19309174189e-07
4.11032702594e-07
4.02987325379e-07
3.94489959498e-07
3.85926271532e-07
3.7735643815e-07
3.6879339482e-07
3.60295305632e-07
3.51906398933e-07
3.4401393551e-07
3.36011425083e-07
3.28286705395e-07
3.20893786709e-07
3.13890743153e-07
3.07301559065e-07
3.01171847906e-07
2.9586509931e-07
2.90797898776e-07
2.86317686254e-07
2.82438100619e-07
2.79198671218e-07
2.76581439004e-07
2.74605912886e-07
2.73284342739e-07
2.72338076558e-07
2.19526275366e-21
2.19526275366e-21
2.19526275366e-21
2.19526275366e-21
2.19526275366e-21
2.19526275366e-21
2.19526275366e-21
2.19526275366e-21
2.19526275366e-21
2.19526275366e-21
2.19526275366e-21
2.19526275366e-21
2.19526275366e-21
2.19526275366e-21
2.19526275366e-21
2.19526275366e-21
2.19526275366e-21
2.19526275366e-21
2.19526275366e-21
2.19526275366e-21
2.19526275366e-21
2.19526275367e-21
2.19526275379e-21
2.19526276174e-21
2.19526327364e-21
2.19529434794e-21
2.1972325257e-21
2.22954048233e-21
0.000159450427821
0.00327603656209
2.49023032865e-05
2.73314547223e-06
1.0792260362e-06
6.80056846844e-07
5.66707232123e-07
5.28200271275e-07
5.12902896208e-07
5.03339879041e-07
4.95043150482e-07
4.86780706209e-07
4.78420537494e-07
4.69921651195e-07
4.61318023609e-07
4.52562488029e-07
4.44073935406e-07
4.35069495409e-07
4.25964204135e-07
4.16790379719e-07
4.07542269268e-07
3.98284100282e-07
3.89028073167e-07
3.79845521178e-07
3.71113506399e-07
3.6217138421e-07
3.53477419856e-07
3.45044177852e-07
3.36905235325e-07
3.29154700939e-07
3.21798954129e-07
3.15242325256e-07
3.08853858617e-07
3.0303502062e-07
2.97793086117e-07
2.93142208429e-07
2.89123016102e-07
2.85745354971e-07
2.83046712164e-07
2.81004658918e-07
2.79634196288e-07
2.7868268083e-07
2.19526275363e-21
2.19526275363e-21
2.19526275363e-21
2.19526275363e-21
2.19526275363e-21
2.19526275363e-21
2.19526275363e-21
2.19526275363e-21
2.19526275363e-21
2.19526275363e-21
2.19526275363e-21
2.19526275363e-21
2.19526275363e-21
2.19526275363e-21
2.19526275364e-21
2.19526275364e-21
2.19526275364e-21
2.19526275364e-21
2.19526275364e-21
2.19526275364e-21
2.19526275364e-21
2.19526275364e-21
2.19526275386e-21
2.19526276782e-21
2.19526365565e-21
2.19531688383e-21
2.19857045366e-21
2.24529149626e-21
0.00225651166526
0.00251689776355
1.45996224429e-05
2.39928212207e-06
1.03287603104e-06
6.9190480757e-07
5.92074166171e-07
5.56093552286e-07
5.41168976263e-07
5.3107921412e-07
5.21659117243e-07
5.12183401683e-07
5.02604142926e-07
4.92908036683e-07
4.83558991386e-07
4.73686891006e-07
4.63764656334e-07
4.53743826253e-07
4.43699099879e-07
4.33603757055e-07
4.23498963679e-07
4.13437369515e-07
4.037596117e-07
3.93862652183e-07
3.84099012961e-07
3.74584543618e-07
3.65317019835e-07
3.56338423882e-07
3.48052968141e-07
3.39857113256e-07
3.32116467183e-07
3.24880839246e-07
3.18203644621e-07
3.12101658796e-07
3.06596419198e-07
3.02058084506e-07
2.97852482103e-07
2.94339281152e-07
2.91496329725e-07
2.89380159097e-07
2.87952830221e-07
2.86960962512e-07
2.19526275361e-21
2.19526275361e-21
2.19526275361e-21
2.19526275361e-21
2.19526275361e-21
2.19526275361e-21
2.19526275361e-21
2.19526275361e-21
2.19526275361e-21
2.19526275361e-21
2.19526275361e-21
2.19526275361e-21
2.19526275361e-21
2.19526275361e-21
2.19526275361e-21
2.19526275361e-21
2.19526275361e-21
2.19526275361e-21
2.19526275361e-21
2.19526275361e-21
2.19526275362e-21
2.19526275362e-21
2.19526275398e-21
2.19526277666e-21
2.19526419213e-21
2.19534743472e-21
2.20029369238e-21
2.26472084261e-21
0.0110969968068
0.00202176315136
1.03100407117e-05
2.16901022458e-06
1.01469222403e-06
7.13161389515e-07
6.22215853807e-07
5.90902542514e-07
5.74989828179e-07
5.6355911281e-07
5.52699021455e-07
5.41814566059e-07
5.30835647492e-07
5.20213820133e-07
5.09134802152e-07
4.98018622509e-07
4.8689861444e-07
4.75720527772e-07
4.64569907027e-07
4.53402945643e-07
4.42716417434e-07
4.31713143949e-07
4.20826410744e-07
4.10096349e-07
3.99588670464e-07
3.89350855283e-07
3.79765576307e-07
3.70173515235e-07
3.61019907623e-07
3.52312167951e-07
3.44113724822e-07
3.36479651943e-07
3.29736621544e-07
3.23304249498e-07
3.17524572218e-07
3.1242170364e-07
3.08016506601e-07
3.04335550027e-07
3.01376503092e-07
2.99152195314e-07
2.97648954016e-07
2.96615799227e-07
2.19526275359e-21
2.19526275359e-21
2.19526275359e-21
2.19526275359e-21
2.19526275359e-21
2.19526275359e-21
2.19526275359e-21
2.19526275359e-21
2.19526275359e-21
2.19526275359e-21
2.1952627536e-21
2.1952627536e-21
2.1952627536e-21
2.1952627536e-21
2.1952627536e-21
2.1952627536e-21
2.1952627536e-21
2.1952627536e-21
2.1952627536e-21
2.1952627536e-21
2.1952627536e-21
2.19526275361e-21
2.19526275416e-21
2.19526278844e-21
2.19526487453e-21
2.19538732682e-21
2.20220164273e-21
1.52086849893e-09
0.0203335778566
0.00160581496509
7.97175110436e-06
1.98841890227e-06
1.00817289608e-06
7.45516723835e-07
6.6299941662e-07
6.31696756683e-07
6.14343964172e-07
6.01154338201e-07
5.88484172993e-07
5.76331621098e-07
5.63752705344e-07
5.51156500699e-07
5.38609954091e-07
5.26065777222e-07
5.13548943733e-07
5.01053418091e-07
4.89052395031e-07
4.76707817977e-07
4.64519820564e-07
4.5244987691e-07
4.40563311133e-07
4.29296895215e-07
4.17907506942e-07
4.06866389431e-07
3.96166425195e-07
3.85901549255e-07
3.76116482793e-07
3.67178869361e-07
3.58459970614e-07
3.50331958853e-07
3.4286359891e-07
3.36059775635e-07
3.29938192374e-07
3.24901221885e-07
3.20236286314e-07
3.16356151549e-07
3.1322752363e-07
3.10880554716e-07
3.09292735894e-07
3.08213886997e-07
2.19526275358e-21
2.19526275358e-21
2.19526275358e-21
2.19526275358e-21
2.19526275358e-21
2.19526275358e-21
2.19526275358e-21
2.19526275358e-21
2.19526275358e-21
2.19526275358e-21
2.19526275358e-21
2.19526275358e-21
2.19526275358e-21
2.19526275358e-21
2.19526275358e-21
2.19526275358e-21
2.19526275358e-21
2.19526275358e-21
2.19526275358e-21
2.19526275358e-21
2.19526275358e-21
2.1952627536e-21
2.19526275448e-21
2.19526281165e-21
2.19526648751e-21
2.19549827763e-21
2.20426496695e-21
4.8888171686e-09
0.0258395415527
0.00124183486821
6.44928614523e-06
1.86397976645e-06
1.01385663467e-06
7.86449371052e-07
7.09540956155e-07
6.78382884252e-07
6.60183269681e-07
6.44248714617e-07
6.29890323489e-07
6.15325758366e-07
6.00832534395e-07
5.86437731779e-07
5.72129260549e-07
5.5794487062e-07
5.44281073986e-07
5.30297950118e-07
5.16461092399e-07
5.0281403673e-07
4.89329574207e-07
4.76486236415e-07
4.63452956091e-07
4.5076881272e-07
4.38406987958e-07
4.2644333854e-07
4.152951608e-07
4.0424824409e-07
3.93732693457e-07
3.83811831127e-07
3.74475974069e-07
3.66186318078e-07
3.58229358883e-07
3.50989515744e-07
3.44508478739e-07
3.38801530466e-07
3.33885517967e-07
3.29778959207e-07
3.26471341852e-07
3.23975554989e-07
3.22292253431e-07
3.21167904252e-07
2.19526275357e-21
2.19526275357e-21
2.19526275357e-21
2.19526275357e-21
2.19526275357e-21
2.19526275357e-21
2.19526275357e-21
2.19526275357e-21
2.19526275357e-21
2.19526275357e-21
2.19526275357e-21
2.19526275357e-21
2.19526275357e-21
2.19526275357e-21
2.19526275357e-21
2.19526275357e-21
2.19526275357e-21
2.19526275357e-21
2.19526275357e-21
2.19526275357e-21
2.19526275357e-21
2.1952627536e-21
2.19526275522e-21
2.19526286055e-21
2.19526939845e-21
2.19567421583e-21
2.20702305556e-21
9.85987481353e-09
0.0267158255946
0.000862228508928
5.40364201111e-06
1.77649887482e-06
1.03604938621e-06
8.34440931246e-07
7.63967283283e-07
7.32325660779e-07
7.11996556461e-07
6.93912050306e-07
6.76556534899e-07
6.59526938912e-07
6.4281851784e-07
6.26305993039e-07
6.10461095001e-07
5.94361208e-07
5.78461271313e-07
5.62803231545e-07
5.47365024737e-07
5.32611843401e-07
5.17690056752e-07
5.03111383246e-07
4.88822573878e-07
4.74979730477e-07
4.61929137295e-07
4.48908841146e-07
4.36459226433e-07
4.24535709606e-07
4.13607343988e-07
4.029407269e-07
3.92949440473e-07
3.83705701443e-07
3.75213943568e-07
3.67480751983e-07
3.60941146639e-07
3.54875111989e-07
3.49651842624e-07
3.45276758993e-07
3.41761522661e-07
3.39104475576e-07
3.3730006994e-07
3.36111065619e-07
2.19526275356e-21
2.19526275356e-21
2.19526275356e-21
2.19526275356e-21
2.19526275356e-21
2.19526275356e-21
2.19526275356e-21
2.19526275356e-21
2.19526275356e-21
2.19526275356e-21
2.19526275356e-21
2.19526275356e-21
2.19526275356e-21
2.19526275356e-21
2.19526275356e-21
2.19526275356e-21
2.19526275356e-21
2.19526275356e-21
2.19526275356e-21
2.19526275356e-21
2.19526275356e-21
2.19526275361e-21
2.19526275647e-21
2.19526293866e-21
2.19527396649e-21
2.19595015287e-21
2.21122328082e-21
1.74202015818e-08
0.0157014519464
0.000463109762317
4.62246637597e-06
1.71822027373e-06
1.07031363256e-06
8.90529466528e-07
8.25800530132e-07
7.93310792665e-07
7.70354251968e-07
7.49245743615e-07
7.29005954327e-07
7.0927587629e-07
6.89966681405e-07
6.71524223178e-07
6.52948468181e-07
6.34687133684e-07
6.16767532236e-07
5.99630675915e-07
5.82329007976e-07
5.65470197355e-07
5.48929209935e-07
5.33281329886e-07
5.17610704069e-07
5.02395756469e-07
4.87738397725e-07
4.7358106879e-07
4.60495742511e-07
4.4759286324e-07
4.35401693687e-07
4.23902804791e-07
4.13585811371e-07
4.03665209028e-07
3.945624413e-07
3.86305134536e-07
3.78942853628e-07
3.72477424453e-07
3.66916696194e-07
3.62597323641e-07
3.58862199269e-07
3.56026406222e-07
3.54104254188e-07
3.52868581748e-07
2.19526275355e-21
2.19526275355e-21
2.19526275355e-21
2.19526275355e-21
2.19526275355e-21
2.19526275355e-21
2.19526275355e-21
2.19526275355e-21
2.19526275355e-21
2.19526275355e-21
2.19526275355e-21
2.19526275355e-21
2.19526275355e-21
2.19526275355e-21
2.19526275355e-21
2.19526275355e-21
2.19526275355e-21
2.19526275355e-21
2.19526275355e-21
2.19526275355e-21
2.19526275355e-21
2.19526275363e-21
2.1952627586e-21
2.19526307345e-21
2.19528218562e-21
2.19647711422e-21
2.21974964345e-21
7.30457917716e-06
0.00498244671007
9.86106034736e-05
4.04587540864e-06
1.66928965388e-06
1.12190565355e-06
9.58488009474e-07
8.95962303224e-07
8.62101370927e-07
8.35752558278e-07
8.11312575627e-07
7.87758639144e-07
7.65454804768e-07
7.43160092285e-07
7.21473937331e-07
7.00261586586e-07
6.80060749497e-07
6.59815536244e-07
6.40029655465e-07
6.20735391092e-07
6.02387486926e-07
5.84077728003e-07
5.66267894949e-07
5.49044139472e-07
5.3283933646e-07
5.16758160387e-07
5.01389685514e-07
4.86662918878e-07
4.73165849325e-07
4.59991079135e-07
4.47579827688e-07
4.36044059031e-07
4.25382020047e-07
4.16020298e-07
4.07190848357e-07
3.99289660458e-07
3.92370976676e-07
3.86425930074e-07
3.8144074795e-07
3.77448299459e-07
3.74410881928e-07
3.72741058414e-07
3.71420350213e-07
2.19526275354e-21
2.19526275354e-21
2.19526275354e-21
2.19526275354e-21
2.19526275354e-21
2.19526275354e-21
2.19526275354e-21
2.19526275354e-21
2.19526275354e-21
2.19526275354e-21
2.19526275354e-21
2.19526275354e-21
2.19526275354e-21
2.19526275354e-21
2.19526275354e-21
2.19526275354e-21
2.19526275354e-21
2.19526275354e-21
2.19526275354e-21
2.19526275354e-21
2.19526275355e-21
2.19526275369e-21
2.19526276281e-21
2.19526334087e-21
2.19529802052e-21
2.19742659453e-21
2.23286153881e-21
0.000206201853607
0.00328035695923
3.20287312007e-05
3.58258744502e-06
1.65060376076e-06
1.17776463805e-06
1.03446003758e-06
9.75806664985e-07
9.39439990855e-07
9.0908748366e-07
8.80543061131e-07
8.5376120616e-07
8.27314344814e-07
8.01697812427e-07
7.76828287262e-07
7.532270744e-07
7.29739482444e-07
7.06877761319e-07
6.85199631727e-07
6.63582311581e-07
6.42629836584e-07
6.22323870846e-07
6.03148637367e-07
5.84142175286e-07
5.6585962987e-07
5.48780332145e-07
5.31988193698e-07
5.16009657258e-07
5.00847387976e-07
4.87043113401e-07
4.73656013021e-07
4.61211430975e-07
4.4972850663e-07
4.39242948776e-07
4.30168901534e-07
4.21722641895e-07
4.14320150892e-07
4.07948080671e-07
4.02606411523e-07
3.98323071966e-07
3.95062710898e-07
3.92839025113e-07
3.91446952681e-07
2.19526275353e-21
2.19526275353e-21
2.19526275353e-21
2.19526275354e-21
2.19526275354e-21
2.19526275354e-21
2.19526275354e-21
2.19526275354e-21
2.19526275354e-21
2.19526275354e-21
2.19526275354e-21
2.19526275354e-21
2.19526275354e-21
2.19526275354e-21
2.19526275354e-21
2.19526275354e-21
2.19526275354e-21
2.19526275354e-21
2.19526275354e-21
2.19526275354e-21
2.19526275354e-21
2.19526275381e-21
2.19526277087e-21
2.19526384145e-21
2.19532722472e-21
2.19911814801e-21
2.2527394296e-21
0.00360005068061
0.00250318315274
1.78716298592e-05
3.24329254406e-06
1.65931424098e-06
1.25078647281e-06
1.12228824789e-06
1.06460125442e-06
1.02489295012e-06
9.90260156614e-07
9.58002402789e-07
9.26340155169e-07
8.9586539948e-07
8.67032221113e-07
8.38618189164e-07
8.11104300864e-07
7.85043145244e-07
7.59289968545e-07
7.34313254686e-07
7.10160670205e-07
6.87339981117e-07
6.64800566223e-07
6.43042718407e-07
6.22639380915e-07
6.02557928698e-07
5.8333211913e-07
5.65521139733e-07
5.48103302152e-07
5.31657657824e-07
5.16216448366e-07
5.0220024342e-07
4.88800970196e-07
4.76431583676e-07
4.65138814833e-07
4.54952762141e-07
4.46330919881e-07
4.38371613962e-07
4.31526179186e-07
4.25808626356e-07
4.21195350197e-07
4.17717706146e-07
4.15325689351e-07
4.1381674067e-07
2.19526275353e-21
2.19526275353e-21
2.19526275353e-21
2.19526275353e-21
2.19526275353e-21
2.19526275353e-21
2.19526275353e-21
2.19526275353e-21
2.19526275353e-21
2.19526275353e-21
2.19526275353e-21
2.19526275353e-21
2.19526275353e-21
2.19526275353e-21
2.19526275353e-21
2.19526275353e-21
2.19526275353e-21
2.19526275353e-21
2.19526275353e-21
2.19526275353e-21
2.19526275354e-21
2.19526275405e-21
2.19526278564e-21
2.19526471209e-21
2.19537544631e-21
2.20169180301e-21
2.91917337215e-10
0.0159141472095
0.00191919659215
1.20396084216e-05
2.99120245058e-06
1.68450528762e-06
1.34319433754e-06
1.22443935701e-06
1.16420817587e-06
1.12008411387e-06
1.08094811491e-06
1.04298527217e-06
1.0064827847e-06
9.72055307566e-07
9.38329359291e-07
9.0583363065e-07
8.75186315753e-07
8.45091781377e-07
8.16038339866e-07
7.8862957571e-07
7.61650668336e-07
7.35621638511e-07
7.11170616196e-07
6.87161064167e-07
6.64080795023e-07
6.42583868482e-07
6.21545194257e-07
6.0155543223e-07
5.83127229694e-07
5.65273945514e-07
5.48491805126e-07
5.32879907485e-07
5.18879042683e-07
5.05529049993e-07
4.93384663355e-07
4.82443299651e-07
4.72693154818e-07
4.64614466606e-07
4.5728555274e-07
4.51142722006e-07
4.46208788399e-07
4.42433814866e-07
4.3986333727e-07
4.38258403919e-07
2.19526275352e-21
2.19526275352e-21
2.19526275352e-21
2.19526275352e-21
2.19526275352e-21
2.19526275352e-21
2.19526275352e-21
2.19526275352e-21
2.19526275353e-21
2.19526275353e-21
2.19526275353e-21
2.19526275353e-21
2.19526275353e-21
2.19526275353e-21
2.19526275353e-21
2.19526275353e-21
2.19526275353e-21
2.19526275353e-21
2.19526275353e-21
2.19526275353e-21
2.19526275354e-21
2.1952627545e-21
2.19526281492e-21
2.19526662528e-21
2.1955020465e-21
2.20479774061e-21
4.6990380646e-09
0.0252700220687
0.00141909326414
8.86830751085e-06
2.804517017e-06
1.73159293735e-06
1.44672355172e-06
1.34066402454e-06
1.27694615156e-06
1.226737279e-06
1.18030667674e-06
1.1363457354e-06
1.09494608193e-06
1.05474978982e-06
1.01692520579e-06
9.7996362337e-07
9.4455223109e-07
9.1117973803e-07
8.7851438137e-07
8.47151619953e-07
8.17638515945e-07
7.8874017853e-07
7.61609595993e-07
7.35071363592e-07
7.09676397111e-07
6.86058141702e-07
6.63030372655e-07
6.41187313324e-07
6.20585130976e-07
6.01721221064e-07
5.83549014961e-07
5.66650737835e-07
5.51509843074e-07
5.37132626689e-07
5.24080388154e-07
5.12311401506e-07
5.0182122222e-07
4.93134146176e-07
4.85265239726e-07
4.78696278772e-07
4.73386235063e-07
4.69354449684e-07
4.66570497399e-07
4.64847271274e-07
2.19526275352e-21
2.19526275352e-21
2.19526275352e-21
2.19526275352e-21
2.19526275352e-21
2.19526275352e-21
2.19526275352e-21
2.19526275352e-21
2.19526275352e-21
2.19526275352e-21
2.19526275352e-21
2.19526275352e-21
2.19526275352e-21
2.19526275352e-21
2.19526275352e-21
2.19526275352e-21
2.19526275352e-21
2.19526275352e-21
2.19526275352e-21
2.19526275352e-21
2.19526275356e-21
2.19526275584e-21
2.19526290048e-21
2.19527165897e-21
2.19579983129e-21
2.20942291502e-21
1.21966454965e-08
0.0255891123459
0.000903613453094
6.92621543993e-06
2.67871891385e-06
1.80810061579e-06
1.57145012831e-06
1.46787043176e-06
1.40050547134e-06
1.34300508083e-06
1.28931948713e-06
1.23926034221e-06
1.19095992778e-06
1.14573497303e-06
1.10187029952e-06
1.06068765739e-06
1.02062257143e-06
9.82285437163e-07
9.46338226184e-07
9.11227305297e-07
8.78335406018e-07
8.46232969617e-07
8.15547766108e-07
7.86916363384e-07
7.58982196621e-07
7.3246130329e-07
7.07896855888e-07
6.84086329741e-07
6.61617331139e-07
6.41147019308e-07
6.21483869261e-07
6.0316255664e-07
5.86285955775e-07
5.71339315875e-07
5.57273593375e-07
5.44636274422e-07
5.33391476695e-07
5.24067906592e-07
5.1560886503e-07
5.0852955249e-07
5.02795055711e-07
4.98462222655e-07
4.95445575569e-07
4.93590670681e-07
2.19526275352e-21
2.19526275352e-21
2.19526275352e-21
2.19526275352e-21
2.19526275352e-21
2.19526275352e-21
2.19526275352e-21
2.19526275352e-21
2.19526275352e-21
2.19526275352e-21
2.19526275352e-21
2.19526275352e-21
2.19526275352e-21
2.19526275352e-21
2.19526275352e-21
2.19526275352e-21
2.19526275352e-21
2.19526275352e-21
2.19526275352e-21
2.19526275352e-21
2.1952627536e-21
2.19526275884e-21
2.19526308143e-21
2.1952820273e-21
2.19641854661e-21
2.21926457929e-21
4.97736012194e-06
0.00606854803463
0.000308764159952
5.66769072226e-06
2.60639937405e-06
1.91483847147e-06
1.71184002662e-06
1.61230007906e-06
1.53668286588e-06
1.47044946159e-06
1.40921799026e-06
1.35076684451e-06
1.29621510601e-06
1.24377835177e-06
1.19467134626e-06
1.147218774e-06
1.10288426044e-06
1.05981517076e-06
1.01956383222e-06
9.80383733724e-07
9.43087156951e-07
9.08185434038e-07
8.74275246251e-07
8.42705528548e-07
8.12080204996e-07
7.82982821837e-07
7.56150241133e-07
7.30201982183e-07
7.05845405991e-07
6.83624745545e-07
6.62318316047e-07
6.42522559833e-07
6.24337573168e-07
6.08273007453e-07
5.93125802206e-07
5.79499819345e-07
5.67422770756e-07
5.57406324231e-07
5.48346855703e-07
5.40770745638e-07
5.34630947486e-07
5.29953609121e-07
5.26692105055e-07
5.24672187694e-07
2.19526275351e-21
2.19526275351e-21
2.19526275351e-21
2.19526275351e-21
2.19526275351e-21
2.19526275351e-21
2.19526275351e-21
2.19526275351e-21
2.19526275351e-21
2.19526275351e-21
2.19526275351e-21
2.19526275351e-21
2.19526275351e-21
2.19526275351e-21
2.19526275351e-21
2.19526275351e-21
2.19526275351e-21
2.19526275351e-21
2.19526275351e-21
2.19526275352e-21
2.19526275372e-21
2.19526276619e-21
2.19526353745e-21
2.19530884539e-21
2.19800682695e-21
2.24089398999e-21
0.00052634748662
0.00313932408321
4.17562974523e-05
4.80301828312e-06
2.58115934778e-06
2.0408210681e-06
1.86935848815e-06
1.76827107263e-06
1.68486086241e-06
1.60974725366e-06
1.53852447539e-06
1.47244539595e-06
1.40923238512e-06
1.35048037591e-06
1.29410826443e-06
1.24144884984e-06
1.1906457567e-06
1.143240209e-06
1.09744494941e-06
1.05466282207e-06
1.01328056285e-06
9.74695957126e-07
9.37294169137e-07
9.02587230294e-07
8.69028918433e-07
8.37284225207e-07
8.07947903742e-07
7.7974255564e-07
7.53297337221e-07
7.2920152664e-07
7.0617035102e-07
6.84836955314e-07
6.65836484846e-07
6.47912747925e-07
6.31647204725e-07
6.17041143271e-07
6.04083313905e-07
5.93341180598e-07
5.83608753316e-07
5.75447965211e-07
5.68862335995e-07
5.63819259517e-07
5.6027610285e-07
5.58100387174e-07
2.19526275351e-21
2.19526275351e-21
2.19526275351e-21
2.19526275351e-21
2.19526275351e-21
2.19526275351e-21
2.19526275351e-21
2.19526275351e-21
2.19526275351e-21
2.19526275351e-21
2.19526275351e-21
2.19526275351e-21
2.19526275351e-21
2.19526275351e-21
2.19526275351e-21
2.19526275351e-21
2.19526275351e-21
2.19526275351e-21
2.19526275351e-21
2.19526275352e-21
2.19526275403e-21
2.19526278521e-21
2.19526467379e-21
2.19537268589e-21
2.20148875546e-21
2.28014817264e-21
0.0132399754283
0.00214951134242
1.80157571547e-05
4.28666037678e-06
2.61554251848e-06
2.20034897334e-06
2.04654290555e-06
1.940067452e-06
1.84653222495e-06
1.75959400484e-06
1.67912312314e-06
1.60278522511e-06
1.53197692735e-06
1.46538706447e-06
1.40163337886e-06
1.34235739942e-06
1.28550392186e-06
1.23254101853e-06
1.18153155941e-06
1.13406287613e-06
1.08825553412e-06
1.04570170264e-06
1.00464442987e-06
9.6655462477e-07
9.29847544683e-07
8.95173678052e-07
8.63302567223e-07
8.32671152261e-07
8.03998494035e-07
7.77939282735e-07
7.53091700908e-07
7.30111067015e-07
7.09680233376e-07
6.90387092847e-07
6.72934772779e-07
6.57289723107e-07
6.44061667034e-07
6.31913035533e-07
6.21462500007e-07
6.12731024452e-07
6.05649272623e-07
6.00192582804e-07
5.9696255315e-07
5.94603956333e-07
2.19526275351e-21
2.19526275351e-21
2.19526275351e-21
2.19526275351e-21
2.19526275351e-21
2.19526275351e-21
2.19526275351e-21
2.19526275351e-21
2.19526275351e-21
2.19526275351e-21
2.19526275351e-21
2.19526275351e-21
2.19526275351e-21
2.19526275351e-21
2.19526275351e-21
2.19526275351e-21
2.19526275351e-21
2.19526275351e-21
2.19526275351e-21
2.19526275353e-21