/*--------------------------------*- C++ -*----------------------------------*\
| =========                 |                                                 |
| \\      /  F ield         | foam-extend: Open Source CFD                    |
|  \\    /   O peration     | Version:     4.1                                |
|   \\  /    A nd           | Web:         http://www.foam-extend.org         |
|    \\/     M anipulation  |                                                 |
\*---------------------------------------------------------------------------*/
FoamFile
{
    version     2.0;
    format      ascii;
    class       volScalarField;
    location    "0.0003";
    object      NOPlus;
}
// * * * * * * * * * * * * * * * * * * * * * * * * * * * * * * * * * * * * * //

dimensions      [0 0 0 0 0 0 0];

internalField   nonuniform List<scalar> 
8400
(
1.21417155641e-66
1.21417155641e-66
1.21417155642e-66
1.21417155642e-66
1.21417155643e-66
1.21417155643e-66
1.21417155644e-66
1.21417155644e-66
1.21417155645e-66
1.21417155645e-66
1.21417155645e-66
1.21417155646e-66
1.21417155646e-66
1.21417155647e-66
1.21417155647e-66
1.21417155648e-66
1.21417155648e-66
1.21417155648e-66
1.21417155649e-66
1.21417155649e-66
1.2141715565e-66
1.2141715565e-66
1.2141715565e-66
1.21417155651e-66
1.21417155665e-66
1.21417156568e-66
1.21417213676e-66
1.21420629234e-66
1.21630739765e-66
1.24927554919e-66
2.14644565967e-14
0.00016276063463
6.21538188406e-05
1.67609838271e-05
8.82657560198e-06
6.29318254822e-06
5.48223736912e-06
5.18622331235e-06
5.07356151981e-06
5.0148022764e-06
4.96801523514e-06
4.92340578012e-06
4.87888110844e-06
4.83380121538e-06
4.78815987846e-06
4.74148476107e-06
4.69614284163e-06
4.64668761168e-06
4.59582760006e-06
4.54336213322e-06
4.48923053623e-06
4.43360869849e-06
4.37908819059e-06
4.32078669218e-06
4.26150622094e-06
4.20151831189e-06
4.14156282541e-06
4.08199019426e-06
4.02589087011e-06
3.96896357444e-06
3.91409728481e-06
3.86239869047e-06
3.81427036872e-06
3.77037988238e-06
3.73133283972e-06
3.69810411159e-06
3.67083023227e-06
3.65253311164e-06
3.63843897695e-06
3.62304527987e-06
1.21417155538e-66
1.21417155538e-66
1.21417155539e-66
1.21417155539e-66
1.21417155539e-66
1.21417155539e-66
1.21417155539e-66
1.2141715554e-66
1.2141715554e-66
1.2141715554e-66
1.2141715554e-66
1.2141715554e-66
1.21417155541e-66
1.21417155541e-66
1.21417155541e-66
1.21417155541e-66
1.21417155541e-66
1.21417155541e-66
1.21417155542e-66
1.21417155542e-66
1.21417155542e-66
1.21417155542e-66
1.21417155542e-66
1.21417155544e-66
1.21417155617e-66
1.21417160375e-66
1.21417465418e-66
1.21436665491e-66
1.22184192271e-66
6.0951817616e-27
2.03093017035e-08
0.000478530858832
2.85096816949e-05
1.17849542242e-05
7.13889790605e-06
5.63015927916e-06
5.12705231623e-06
4.96211693701e-06
4.89942217966e-06
4.86057566636e-06
4.82380619216e-06
4.78600984364e-06
4.74679943151e-06
4.70558769664e-06
4.66235582719e-06
4.61725491925e-06
4.57010959254e-06
4.52082060259e-06
4.46951004594e-06
4.41645784523e-06
4.36150753916e-06
4.30524484968e-06
4.24771589582e-06
4.18898351959e-06
4.1322364554e-06
4.07271658139e-06
4.01368664869e-06
3.95544231562e-06
3.89873664168e-06
3.84410555139e-06
3.79194965675e-06
3.74294541908e-06
3.69777943513e-06
3.65928722115e-06
3.62338583948e-06
3.59278123875e-06
3.56787107581e-06
3.5488620061e-06
3.53599905167e-06
3.52541687665e-06
1.21417155501e-66
1.21417155501e-66
1.21417155501e-66
1.21417155502e-66
1.21417155502e-66
1.21417155502e-66
1.21417155502e-66
1.21417155502e-66
1.21417155502e-66
1.21417155502e-66
1.21417155502e-66
1.21417155502e-66
1.21417155503e-66
1.21417155503e-66
1.21417155503e-66
1.21417155503e-66
1.21417155503e-66
1.21417155503e-66
1.21417155503e-66
1.21417155503e-66
1.21417155503e-66
1.21417155503e-66
1.21417155504e-66
1.21417155511e-66
1.21417155985e-66
1.21417186736e-66
1.21419081805e-66
1.21538757168e-66
1.23759282768e-66
1.70529958478e-18
7.18282009593e-05
9.89176616914e-05
1.83214428124e-05
9.08192079943e-06
6.217387258e-06
5.28518136167e-06
4.97804112937e-06
4.87748497539e-06
4.83045778959e-06
4.79609424042e-06
4.76207828919e-06
4.72619541615e-06
4.68822998217e-06
4.64812113244e-06
4.60580946812e-06
4.56132372933e-06
4.51452110198e-06
4.4656158425e-06
4.41473693119e-06
4.36184826935e-06
4.30746215776e-06
4.25166744103e-06
4.19456802132e-06
4.13686324281e-06
4.07869439906e-06
4.02318867862e-06
3.9657568518e-06
3.90954768595e-06
3.85509676057e-06
3.8027944706e-06
3.75321884457e-06
3.7070393232e-06
3.66466648524e-06
3.62637263596e-06
3.59515788355e-06
3.56665129977e-06
3.54350852307e-06
3.52610928553e-06
3.51441550447e-06
3.50519551508e-06
1.21417155483e-66
1.21417155483e-66
1.21417155483e-66
1.21417155483e-66
1.21417155483e-66
1.21417155484e-66
1.21417155484e-66
1.21417155484e-66
1.21417155484e-66
1.21417155484e-66
1.21417155484e-66
1.21417155484e-66
1.21417155484e-66
1.21417155484e-66
1.21417155484e-66
1.21417155484e-66
1.21417155484e-66
1.21417155484e-66
1.21417155485e-66
1.21417155485e-66
1.21417155485e-66
1.21417155485e-66
1.21417155485e-66
1.21417155514e-66
1.21417157342e-66
1.21417271742e-66
1.21424021015e-66
1.21829565792e-66
1.27195091974e-66
1.78555415009e-11
0.00030813967235
4.06810237567e-05
1.40045277491e-05
7.79361156062e-06
5.81255290394e-06
5.15895572335e-06
4.95070752708e-06
4.87581935617e-06
4.83643909462e-06
4.80135363481e-06
4.76542563642e-06
4.72746656957e-06
4.68736456935e-06
4.645148215e-06
4.60078604424e-06
4.55433504103e-06
4.50565877401e-06
4.45509012109e-06
4.40267626805e-06
4.34848043086e-06
4.29298240054e-06
4.23629842694e-06
4.17853424979e-06
4.12296823884e-06
4.06469913465e-06
4.00703541781e-06
3.95008313732e-06
3.89464121067e-06
3.84110373662e-06
3.7898683294e-06
3.74153066334e-06
3.69897985325e-06
3.65796218959e-06
3.62118568313e-06
3.5889302549e-06
3.56162248119e-06
3.53948010607e-06
3.52284240879e-06
3.51171517406e-06
3.50318654436e-06
1.21417155473e-66
1.21417155473e-66
1.21417155473e-66
1.21417155473e-66
1.21417155473e-66
1.21417155473e-66
1.21417155473e-66
1.21417155473e-66
1.21417155473e-66
1.21417155473e-66
1.21417155473e-66
1.21417155473e-66
1.21417155474e-66
1.21417155474e-66
1.21417155474e-66
1.21417155474e-66
1.21417155474e-66
1.21417155474e-66
1.21417155474e-66
1.21417155474e-66
1.21417155474e-66
1.21417155474e-66
1.21417155475e-66
1.21417155545e-66
1.21417160105e-66
1.21417454604e-66
1.21436114942e-66
1.22180508195e-66
6.04250810078e-27
2.00394372636e-08
0.000478726418135
2.84885610241e-05
1.17864526744e-05
7.15356711655e-06
5.65643288243e-06
5.16359350481e-06
4.99878615489e-06
4.93500525989e-06
4.89390973892e-06
4.85515437543e-06
4.81516572706e-06
4.77330867236e-06
4.72951587681e-06
4.6836374156e-06
4.63576405911e-06
4.58594239796e-06
4.53418132735e-06
4.48048805116e-06
4.42535500995e-06
4.3686321305e-06
4.31075879615e-06
4.25441386753e-06
4.19496816241e-06
4.13544713646e-06
4.07604706557e-06
4.01735157538e-06
3.95981016967e-06
3.90384092247e-06
3.8500106227e-06
3.80107152705e-06
3.75287651034e-06
3.70816854691e-06
3.66747118666e-06
3.63107045236e-06
3.59935573607e-06
3.57248123518e-06
3.55076529506e-06
3.53432462233e-06
3.52325633233e-06
3.51496834696e-06
1.21417155466e-66
1.21417155466e-66
1.21417155466e-66
1.21417155466e-66
1.21417155466e-66
1.21417155466e-66
1.21417155467e-66
1.21417155467e-66
1.21417155467e-66
1.21417155467e-66
1.21417155467e-66
1.21417155467e-66
1.21417155467e-66
1.21417155467e-66
1.21417155467e-66
1.21417155467e-66
1.21417155467e-66
1.21417155467e-66
1.21417155467e-66
1.21417155467e-66
1.21417155467e-66
1.21417155467e-66
1.2141715547e-66
1.21417155656e-66
1.21417167654e-66
1.21417904701e-66
1.21463741682e-66
1.22605416777e-66
1.84086038228e-26
4.66283573032e-07
0.000424260108807
2.2825532223e-05
1.04918855204e-05
6.82313933893e-06
5.63043340721e-06
5.23593311848e-06
5.09988003444e-06
5.03822421661e-06
4.99168540927e-06
4.94699419355e-06
4.90149416503e-06
4.85457889433e-06
4.80576306638e-06
4.75519910013e-06
4.70283580434e-06
4.64863910795e-06
4.59289257847e-06
4.53563251918e-06
4.47671848044e-06
4.41927777328e-06
4.35814897467e-06
4.29650975272e-06
4.23451530315e-06
4.17266181274e-06
4.1113534627e-06
4.0507770899e-06
3.99408420815e-06
3.93685837543e-06
3.88188082362e-06
3.82973344167e-06
3.78090233256e-06
3.73568440981e-06
3.69445359011e-06
3.65775910759e-06
3.62577474705e-06
3.60126644513e-06
3.57938680411e-06
3.56286140959e-06
3.55178684787e-06
3.5434900727e-06
1.21417155462e-66
1.21417155462e-66
1.21417155462e-66
1.21417155462e-66
1.21417155462e-66
1.21417155462e-66
1.21417155462e-66
1.21417155462e-66
1.21417155462e-66
1.21417155462e-66
1.21417155462e-66
1.21417155462e-66
1.21417155462e-66
1.21417155462e-66
1.21417155462e-66
1.21417155462e-66
1.21417155462e-66
1.21417155462e-66
1.21417155462e-66
1.21417155463e-66
1.21417155463e-66
1.21417155463e-66
1.21417155469e-66
1.21417155846e-66
1.21417180081e-66
1.21418671432e-66
1.21513959931e-66
1.23432903122e-66
8.82791451952e-19
4.37438660734e-05
0.000134181478314
1.95902187152e-05
9.70649876e-06
6.67204704266e-06
5.68784219397e-06
5.35471919303e-06
5.23507440661e-06
5.17095785421e-06
5.11956813787e-06
5.06906250273e-06
5.01758792186e-06
4.96460830236e-06
4.91035481287e-06
4.85457567537e-06
4.79703121862e-06
4.73795230946e-06
4.67737346563e-06
4.61814689608e-06
4.55513807843e-06
4.49113719439e-06
4.42656693632e-06
4.36150271729e-06
4.2963795054e-06
4.23153427689e-06
4.17000924488e-06
4.10706193667e-06
4.04578224301e-06
3.98663070343e-06
3.93012696911e-06
3.876541481e-06
3.82631530909e-06
3.78256424623e-06
3.74041145027e-06
3.70295250267e-06
3.67038866658e-06
3.64300034415e-06
3.62083849498e-06
3.60405681304e-06
3.59276856193e-06
3.58444270014e-06
1.21417155458e-66
1.21417155458e-66
1.21417155459e-66
1.21417155459e-66
1.21417155459e-66
1.21417155459e-66
1.21417155459e-66
1.21417155459e-66
1.21417155459e-66
1.21417155459e-66
1.21417155459e-66
1.21417155459e-66
1.21417155459e-66
1.21417155459e-66
1.21417155459e-66
1.21417155459e-66
1.21417155459e-66
1.21417155459e-66
1.21417155459e-66
1.21417155459e-66
1.21417155459e-66
1.21417155459e-66
1.21417155471e-66
1.21417156207e-66
1.21417203608e-66
1.21420081038e-66
1.21599553169e-66
1.2459121779e-66
1.16985129975e-14
0.000138769902973
7.01644388993e-05
1.74169145911e-05
9.21246034501e-06
6.62701668256e-06
5.79900491195e-06
5.51022298388e-06
5.399138758e-06
5.33243689199e-06
5.27528688209e-06
5.21826361586e-06
5.16025709053e-06
5.10089389874e-06
5.04043632529e-06
4.97850121789e-06
4.91805621965e-06
4.85346183936e-06
4.78765501211e-06
4.72083409461e-06
4.65298035541e-06
4.58458366323e-06
4.515664086e-06
4.44669434432e-06
4.38052846022e-06
4.31215398819e-06
4.24505904928e-06
4.17938330168e-06
4.11543573293e-06
4.05401002408e-06
3.99523122441e-06
3.94241949445e-06
3.89051647472e-06
3.84289701911e-06
3.79972399599e-06
3.76122401134e-06
3.72770685667e-06
3.69945290037e-06
3.67674932792e-06
3.6595625707e-06
3.64800688556e-06
3.63969014207e-06
1.21417155456e-66
1.21417155456e-66
1.21417155456e-66
1.21417155456e-66
1.21417155456e-66
1.21417155456e-66
1.21417155456e-66
1.21417155456e-66
1.21417155456e-66
1.21417155456e-66
1.21417155456e-66
1.21417155456e-66
1.21417155456e-66
1.21417155456e-66
1.21417155456e-66
1.21417155456e-66
1.21417155456e-66
1.21417155457e-66
1.21417155457e-66
1.21417155457e-66
1.21417155457e-66
1.21417155457e-66
1.21417155477e-66
1.2141715677e-66
1.21417238982e-66
1.21422167825e-66
1.21723443138e-66
1.26049736249e-66
1.25529545242e-13
0.000234490259699
5.06353664279e-05
1.59373659568e-05
8.90768244812e-06
6.68109907468e-06
5.95829816701e-06
5.69486448196e-06
5.58923473084e-06
5.5207076278e-06
5.4572543703e-06
5.3931796319e-06
5.328006737e-06
5.2615860904e-06
5.19711868138e-06
5.1285236682e-06
5.0590583946e-06
4.98834968116e-06
4.91689344858e-06
4.84447204139e-06
4.77136394278e-06
4.69793357136e-06
4.62667786073e-06
4.5532824047e-06
4.48026167266e-06
4.40841064426e-06
4.33777473558e-06
4.26869954655e-06
4.20439275907e-06
4.14019273648e-06
4.07903832944e-06
4.02139812042e-06
3.96779082852e-06
3.9184561701e-06
3.87359536814e-06
3.83638149817e-06
3.80175729349e-06
3.7726276731e-06
3.74904132104e-06
3.73136030852e-06
3.7194215793e-06
3.71089613781e-06
1.21417155454e-66
1.21417155454e-66
1.21417155454e-66
1.21417155454e-66
1.21417155454e-66
1.21417155454e-66
1.21417155454e-66
1.21417155454e-66
1.21417155454e-66
1.21417155454e-66
1.21417155454e-66
1.21417155454e-66
1.21417155454e-66
1.21417155454e-66
1.21417155454e-66
1.21417155454e-66
1.21417155454e-66
1.21417155455e-66
1.21417155455e-66
1.21417155455e-66
1.21417155455e-66
1.21417155455e-66
1.21417155489e-66
1.21417157589e-66
1.21417288659e-66
1.21424996788e-66
1.21883012262e-66
1.27848862351e-66
1.22570922902e-10
0.000329129314477
4.08170741575e-05
1.4858675712e-05
8.76455172653e-06
6.79578807909e-06
6.14633817478e-06
5.921243038e-06
5.81239987973e-06
5.73667328069e-06
5.66516277315e-06
5.5932083762e-06
5.52011978377e-06
5.44888918405e-06
5.37400623254e-06
5.29828144132e-06
5.22190959156e-06
5.14448449519e-06
5.06658036836e-06
4.98786873914e-06
4.91183291786e-06
4.83279577799e-06
4.7538722713e-06
4.67535697027e-06
4.59774139585e-06
4.52142246431e-06
4.44940443125e-06
4.37664184994e-06
4.30655583074e-06
4.23927505853e-06
4.17536434493e-06
4.11534540161e-06
4.06191375305e-06
4.01055380767e-06
3.96408922017e-06
3.92274958698e-06
3.88690685649e-06
3.8568079546e-06
3.83252505883e-06
3.81418396303e-06
3.80178656946e-06
3.79303663395e-06
1.21417155452e-66
1.21417155452e-66
1.21417155453e-66
1.21417155453e-66
1.21417155453e-66
1.21417155453e-66
1.21417155453e-66
1.21417155453e-66
1.21417155453e-66
1.21417155453e-66
1.21417155453e-66
1.21417155453e-66
1.21417155453e-66
1.21417155453e-66
1.21417155453e-66
1.21417155453e-66
1.21417155453e-66
1.21417155453e-66
1.21417155453e-66
1.21417155453e-66
1.21417155453e-66
1.21417155454e-66
1.21417155505e-66
1.21417158679e-66
1.21417351848e-66
1.21428690733e-66
1.22059685383e-66
2.24371174633e-27
3.51232235691e-09
0.000419222808295
3.47207917853e-05
1.39774807086e-05
8.6896728596e-06
6.97747164976e-06
6.3980624291e-06
6.18068862336e-06
6.06630301188e-06
5.9815044504e-06
5.90010532772e-06
5.82153473563e-06
5.73957799948e-06
5.6568335629e-06
5.57384856748e-06
5.49021444723e-06
5.40602300358e-06
5.32121906057e-06
5.23902888378e-06
5.15359562821e-06
5.06845744231e-06
4.98334692386e-06
4.89872466945e-06
4.81767988341e-06
4.73488954172e-06
4.65386237246e-06
4.57456943584e-06
4.49776157485e-06
4.42387769662e-06
4.35586491206e-06
4.28890138009e-06
4.22594580892e-06
4.16762623155e-06
4.11409195153e-06
4.06555269095e-06
4.02535155008e-06
3.9879417275e-06
3.95663034028e-06
3.93133377278e-06
3.91224243627e-06
3.89932532349e-06
3.89032487435e-06
1.21417155451e-66
1.21417155451e-66
1.21417155451e-66
1.21417155451e-66
1.21417155451e-66
1.21417155451e-66
1.21417155451e-66
1.21417155451e-66
1.21417155451e-66
1.21417155451e-66
1.21417155451e-66
1.21417155451e-66
1.21417155451e-66
1.21417155451e-66
1.21417155452e-66
1.21417155452e-66
1.21417155452e-66
1.21417155452e-66
1.21417155452e-66
1.21417155452e-66
1.21417155452e-66
1.21417155453e-66
1.21417155534e-66
1.21417160829e-66
1.21417501207e-66
1.21438964598e-66
1.22250745875e-66
7.17043782301e-27
2.7335479224e-08
0.000481152769343
3.03321221428e-05
1.33365713009e-05
8.68487548478e-06
7.20727724269e-06
6.67930973841e-06
6.47023009792e-06
6.35453638376e-06
6.25520834763e-06
6.16549361237e-06
6.07370913954e-06
5.98160016515e-06
5.88931823734e-06
5.79677838404e-06
5.70414136864e-06
5.61406377447e-06
5.52110353791e-06
5.42831737127e-06
5.33583154429e-06
5.24351396364e-06
5.15473277491e-06
5.06366839488e-06
4.97407872619e-06
4.88589157608e-06
4.79969092336e-06
4.71846305681e-06
4.63715904912e-06
4.559015339e-06
4.48458627236e-06
4.41389784474e-06
4.35065003675e-06
4.28947554478e-06
4.2333822989e-06
4.18280897035e-06
4.13800313337e-06
4.09917285864e-06
4.06654994814e-06
4.04020942032e-06
4.02027022979e-06
4.0067659943e-06
3.99751301743e-06
1.2141715545e-66
1.2141715545e-66
1.2141715545e-66
1.2141715545e-66
1.2141715545e-66
1.2141715545e-66
1.2141715545e-66
1.2141715545e-66
1.2141715545e-66
1.2141715545e-66
1.2141715545e-66
1.2141715545e-66
1.2141715545e-66
1.2141715545e-66
1.2141715545e-66
1.2141715545e-66
1.2141715545e-66
1.2141715545e-66
1.2141715545e-66
1.21417155451e-66
1.21417155451e-66
1.21417155453e-66
1.21417155603e-66
1.21417165356e-66
1.21417770755e-66
1.21455256192e-66
1.22506140427e-66
1.43512831839e-26
1.5832144043e-07
0.000487039695773
2.70490676661e-05
1.28591459068e-05
8.77283716652e-06
7.47338690234e-06
7.00038633481e-06
6.7958201535e-06
6.67143978135e-06
6.56216311731e-06
6.45680638185e-06
6.35245563222e-06
6.24907940756e-06
6.14596139841e-06
6.04602006324e-06
5.94339759135e-06
5.84106490848e-06
5.73920433415e-06
5.63771140575e-06
5.53977126709e-06
5.43965051659e-06
5.34091904658e-06
5.24313169863e-06
5.14729503333e-06
5.0560096464e-06
4.96396073136e-06
4.8749401968e-06
4.78881430464e-06
4.7091147677e-06
4.63052311566e-06
4.55615647889e-06
4.48674220642e-06
4.42243096108e-06
4.36340114327e-06
4.31312396522e-06
4.26619536079e-06
4.22560464234e-06
4.19146752853e-06
4.16390567009e-06
4.14301298503e-06
4.12882784662e-06
4.11925799789e-06
1.21417155449e-66
1.21417155449e-66
1.21417155449e-66
1.21417155449e-66
1.21417155449e-66
1.21417155449e-66
1.21417155449e-66
1.21417155449e-66
1.21417155449e-66
1.21417155449e-66
1.21417155449e-66
1.21417155449e-66
1.21417155449e-66
1.21417155449e-66
1.21417155449e-66
1.21417155449e-66
1.2141715545e-66
1.2141715545e-66
1.2141715545e-66
1.2141715545e-66
1.2141715545e-66
1.21417155454e-66
1.21417155719e-66
1.2141717259e-66
1.21418193749e-66
1.21480807515e-66
1.22895074504e-66
2.50840077989e-26
2.35401801406e-06
0.000386784052001
2.44122122837e-05
1.25158121125e-05
8.92498987522e-06
7.77894360197e-06
7.35538145444e-06
7.15418328946e-06
7.01852581104e-06
6.8948062529e-06
6.77533868526e-06
6.6579366512e-06
6.54177133024e-06
6.42969334996e-06
6.31557699807e-06
6.20215668591e-06
6.08969178634e-06
5.98089626623e-06
5.86989722702e-06
5.76042197774e-06
5.65187921239e-06
5.54801498404e-06
5.44280038087e-06
5.33958904611e-06
5.23912389828e-06
5.14108361473e-06
5.0493781527e-06
4.9579938365e-06
4.87078681795e-06
4.78764610008e-06
4.7123181354e-06
4.6391869808e-06
4.57150361064e-06
4.50961317643e-06
4.454035812e-06
4.40488975461e-06
4.36232580656e-06
4.32917623676e-06
4.30030845044e-06
4.27839132918e-06
4.26350351658e-06
4.25365234736e-06
1.21417155448e-66
1.21417155448e-66
1.21417155448e-66
1.21417155448e-66
1.21417155448e-66
1.21417155449e-66
1.21417155449e-66
1.21417155449e-66
1.21417155449e-66
1.21417155449e-66
1.21417155449e-66
1.21417155449e-66
1.21417155449e-66
1.21417155449e-66
1.21417155449e-66
1.21417155449e-66
1.21417155449e-66
1.21417155449e-66
1.21417155449e-66
1.21417155449e-66
1.21417155449e-66
1.21417155456e-66
1.21417155916e-66
1.21417185071e-66
1.21418954827e-66
1.21529603286e-66
1.23684601918e-66
1.25407023645e-18
5.14875891987e-05
0.000160023912001
2.2330207229e-05
1.22162574715e-05
9.16554729684e-06
8.14171791117e-06
7.74674122804e-06
7.54633895408e-06
7.39652226519e-06
7.25787912962e-06
7.12302999761e-06
6.9939496013e-06
6.86346047549e-06
6.73505368378e-06
6.60824355758e-06
6.4860989026e-06
6.3623241921e-06
6.23985300169e-06
6.119085782e-06
6.00286701514e-06
5.88551283859e-06
5.76998900205e-06
5.65695332698e-06
5.54936314891e-06
5.44132934879e-06
5.33685469592e-06
5.23569635959e-06
5.14206384401e-06
5.04969257837e-06
4.96179293642e-06
4.87920555908e-06
4.80212807177e-06
4.73388627639e-06
4.66898396145e-06
4.61047664931e-06
4.5588756847e-06
4.51422885363e-06
4.47665508577e-06
4.4464056047e-06
4.4233880643e-06
4.41069784623e-06
4.40039224025e-06
1.21417155448e-66
1.21417155448e-66
1.21417155448e-66
1.21417155448e-66
1.21417155448e-66
1.21417155448e-66
1.21417155448e-66
1.21417155448e-66
1.21417155448e-66
1.21417155448e-66
1.21417155448e-66
1.21417155448e-66
1.21417155448e-66
1.21417155448e-66
1.21417155448e-66
1.21417155448e-66
1.21417155448e-66
1.21417155448e-66
1.21417155448e-66
1.21417155448e-66
1.21417155448e-66
1.21417155462e-66
1.21417156306e-66
1.21417209833e-66
1.21420421113e-66
1.2161752363e-66
1.24898742258e-66
1.54269397102e-14
0.000140049120091
8.13209917611e-05
2.05582394817e-05
1.20576061827e-05
9.4225793928e-06
8.5367666015e-06
8.17911942808e-06
7.97335922326e-06
7.80729714046e-06
7.65073842201e-06
7.5022678697e-06
7.35382794466e-06
7.20834405843e-06
7.06536477768e-06
6.92795536618e-06
6.78957199018e-06
6.65318564646e-06
6.52235267933e-06
6.3904843656e-06
6.26103930384e-06
6.13405278594e-06
6.01268870963e-06
5.89082886114e-06
5.77224932714e-06
5.66006953136e-06
5.54850776074e-06
5.44101002487e-06
5.33792094737e-06
5.24299138299e-06
5.14990611941e-06
5.06259420487e-06
4.98132648901e-06
4.90640701845e-06
4.84107812687e-06
4.77973952525e-06
4.72559832503e-06
4.67872586223e-06
4.63928705403e-06
4.60744043241e-06
4.58319572107e-06
4.56664703806e-06
4.55601085479e-06
1.21417155447e-66
1.21417155447e-66
1.21417155447e-66
1.21417155447e-66
1.21417155447e-66
1.21417155447e-66
1.21417155447e-66
1.21417155447e-66
1.21417155447e-66
1.21417155447e-66
1.21417155447e-66
1.21417155447e-66
1.21417155447e-66
1.21417155447e-66
1.21417155447e-66
1.21417155447e-66
1.21417155447e-66
1.21417155447e-66
1.21417155447e-66
1.21417155447e-66
1.21417155448e-66
1.21417155473e-66
1.21417157052e-66
1.21417256186e-66
1.21423125375e-66
1.21774158751e-66
1.26739402851e-66
3.80855288153e-13
0.000240339456517
5.69649959215e-05
1.91755275808e-05
1.20265437681e-05
9.75921980702e-06
8.98153462901e-06
8.64533143025e-06
8.43067447854e-06
8.24778201193e-06
8.07657065898e-06
7.90665724297e-06
7.74100782544e-06
7.5822854389e-06
7.42378714465e-06
7.26824943919e-06
7.11902420395e-06
6.96960346014e-06
6.8228337435e-06
6.67901275327e-06
6.54134826947e-06
6.40367358956e-06
6.2692423206e-06
6.14160065658e-06
6.01441797241e-06
5.89107523343e-06
5.77545145659e-06
5.66095721492e-06
5.55156630939e-06
5.44767623135e-06
5.35242764395e-06
5.26026940647e-06
5.17437686549e-06
5.09523649193e-06
5.02323558666e-06
4.96185934083e-06
4.90482195656e-06
4.85554308651e-06
4.81410556032e-06
4.78059900858e-06
4.75521454731e-06
4.73776833982e-06
4.72655356173e-06
1.21417155447e-66
1.21417155447e-66
1.21417155447e-66
1.21417155447e-66
1.21417155447e-66
1.21417155447e-66
1.21417155447e-66
1.21417155447e-66
1.21417155447e-66
1.21417155447e-66
1.21417155447e-66
1.21417155447e-66
1.21417155447e-66
1.21417155447e-66
1.21417155447e-66
1.21417155447e-66
1.21417155447e-66
1.21417155447e-66
1.21417155447e-66
1.21417155447e-66
1.21417155448e-66
1.21417155495e-66
1.2141715842e-66
1.21417336806e-66
1.21427590617e-66
1.22012475048e-66
4.31222230311e-28
7.65685111465e-10
0.000356293865722
4.45837553686e-05
1.80839538831e-05
1.20710744953e-05
1.01807613177e-05
9.48427201306e-06
9.15133639942e-06
8.92396331127e-06
8.72500191181e-06
8.53018471242e-06
8.340352655e-06
8.15887451917e-06
7.97855804597e-06
7.80267228387e-06
7.6345835266e-06
7.46716773856e-06
7.30331380562e-06
7.14663763567e-06
6.99031062145e-06
6.83744815904e-06
6.69191077601e-06
6.54701839692e-06
6.40590055136e-06
6.27280442919e-06
6.14086425898e-06
6.01406341486e-06
5.89580784601e-06
5.77974019153e-06
5.66941891655e-06
5.56557265055e-06
5.47147112384e-06
5.38082150758e-06
5.29758479475e-06
5.22191899085e-06
5.15392464079e-06
5.09718677092e-06
5.045391005e-06
5.00181329179e-06
4.96660511254e-06
4.93966669971e-06
4.92124500276e-06
4.90952001972e-06
1.21417155446e-66
1.21417155446e-66
1.21417155446e-66
1.21417155446e-66
1.21417155446e-66
1.21417155446e-66
1.21417155446e-66
1.21417155446e-66
1.21417155446e-66
1.21417155446e-66
1.21417155446e-66
1.21417155446e-66
1.21417155446e-66
1.21417155446e-66
1.21417155446e-66
1.21417155446e-66
1.21417155446e-66
1.21417155446e-66
1.21417155446e-66
1.21417155446e-66
1.21417155448e-66
1.21417155537e-66
1.21417161131e-66
1.21417513964e-66
1.21439313589e-66
1.22300079856e-66
6.88470128328e-27
2.06221952286e-08
0.000460381369811
3.67532126389e-05
1.7224116597e-05
1.22124286051e-05
1.06416595053e-05
1.00380912644e-05
9.70473113273e-06
9.457899458e-06
9.23058634662e-06
9.01279289761e-06
8.80471807973e-06
8.59962910628e-06
8.40377971141e-06
8.20952420864e-06
8.02067184898e-06
7.84010547068e-06
7.66088742099e-06
7.48658664979e-06
7.32022778148e-06
7.15501482883e-06
6.99779469433e-06
6.84177554596e-06
6.6904454007e-06
6.54780016802e-06
6.40676843522e-06
6.27129155612e-06
6.14187523503e-06
6.02189704345e-06
5.90508764777e-06
5.7952291284e-06
5.69579909005e-06
5.60038349089e-06
5.51288491043e-06
5.43327664764e-06
5.36174225246e-06
5.30215030236e-06
5.24772190869e-06
5.20208771138e-06
5.16508757505e-06
5.13687593026e-06
5.1173879612e-06
5.10514068073e-06
1.21417155446e-66
1.21417155446e-66
1.21417155446e-66
1.21417155446e-66
1.21417155446e-66
1.21417155446e-66
1.21417155446e-66
1.21417155446e-66
1.21417155446e-66
1.21417155446e-66
1.21417155446e-66
1.21417155446e-66
1.21417155446e-66
1.21417155446e-66
1.21417155446e-66
1.21417155446e-66
1.21417155446e-66
1.21417155446e-66
1.21417155446e-66
1.21417155446e-66
1.21417155449e-66
1.2141715566e-66
1.21417169054e-66
1.21417980076e-66
1.2146688798e-66
1.22728363538e-66
1.76491599282e-26
2.70912133196e-07
0.000492252428903
3.13326818729e-05
1.65924725862e-05
1.24797332349e-05
1.11849487906e-05
1.06244099034e-05
1.02922266101e-05
1.00211468627e-05
9.76729807664e-06
9.52750328537e-06
9.29287304032e-06
9.06966914465e-06
8.84967754068e-06
8.63999908819e-06
8.43278787593e-06
8.23145426655e-06
8.0398237254e-06
7.84978759328e-06
7.6691684172e-06
7.49024129519e-06
7.31696455101e-06
7.15304568426e-06
6.99078760825e-06
6.83458016966e-06
6.6879422988e-06
6.54385809732e-06
6.40604101312e-06
6.27895734638e-06
6.15533480065e-06
6.03878740439e-06
5.93022730934e-06
5.83311529673e-06
5.74084517421e-06
5.6572750737e-06
5.58233370303e-06
5.51981326708e-06
5.46264150467e-06
5.41454292945e-06
5.37549840993e-06
5.34583169843e-06
5.32521145184e-06
5.31237196846e-06
1.21417155445e-66
1.21417155445e-66
1.21417155445e-66
1.21417155445e-66
1.21417155445e-66
1.21417155445e-66
1.21417155445e-66
1.21417155445e-66
1.21417155445e-66
1.21417155445e-66
1.21417155445e-66
1.21417155445e-66
1.21417155446e-66
1.21417155446e-66
1.21417155446e-66
1.21417155446e-66
1.21417155446e-66
1.21417155446e-66
1.21417155446e-66
1.21417155446e-66
1.21417155454e-66
1.21417155939e-66
1.2141718581e-66
1.21418940166e-66
1.2152418002e-66
1.2363968576e-66
8.53243091898e-19
3.17173108523e-05
0.000310649910328
2.74411067577e-05
1.61684024084e-05
1.28705340127e-05
1.17793481639e-05
1.12682080247e-05
1.09173309453e-05
1.06182726474e-05
1.03394967571e-05
1.00689562905e-05
9.81232194588e-06
9.56127008917e-06
9.32239505805e-06
9.08814585495e-06
8.86584478571e-06
8.64633557979e-06
8.43802225407e-06
8.23197552544e-06
8.03281307313e-06
7.84357290013e-06
7.65687045606e-06
7.48052142571e-06
7.30684390132e-06
7.13955444028e-06
6.98333453296e-06
6.83013875096e-06
6.68444260975e-06
6.54981959632e-06
6.41900499361e-06
6.29610201517e-06
6.18180316198e-06
6.07983965943e-06
5.98274394166e-06
5.89455864314e-06
5.81575729518e-06
5.74997929908e-06
5.69001509185e-06
5.63963556192e-06
5.59870798768e-06
5.56739244199e-06
5.54557953652e-06
5.53192244703e-06
1.21417155445e-66
1.21417155445e-66
1.21417155445e-66
1.21417155445e-66
1.21417155445e-66
1.21417155445e-66
1.21417155445e-66
1.21417155445e-66
1.21417155445e-66
1.21417155445e-66
1.21417155445e-66
1.21417155445e-66
1.21417155445e-66
1.21417155445e-66
1.21417155445e-66
1.21417155445e-66
1.21417155445e-66
1.21417155445e-66
1.21417155445e-66
1.21417155446e-66
1.21417155464e-66
1.21417156619e-66
1.21417228036e-66
1.21421423479e-66
1.21671252215e-66
1.25642534268e-66
1.96406482488e-14
0.000156664426237
9.48302348384e-05
2.45239173276e-05
1.59311014857e-05
1.33314269964e-05
1.2427368674e-05
1.19399410573e-05
1.15739335885e-05
1.12486204356e-05
1.09359306715e-05
1.06407730318e-05
1.03532849377e-05
1.00812625451e-05
9.81576704164e-06
9.56337529091e-06
9.31574756198e-06
9.0808249917e-06
8.85022632076e-06
8.63166064636e-06
8.41678969927e-06
8.21334524092e-06
8.01291657396e-06
7.82414858788e-06
7.63874376614e-06
7.46075684885e-06
7.29394640267e-06
7.13122377277e-06
6.97654813086e-06
6.83392509519e-06
6.69599524251e-06
6.5665945568e-06
6.45015926243e-06
6.3389783803e-06
6.2371339067e-06
6.14485120055e-06
6.06228167578e-06
5.9933210797e-06
5.93041814506e-06
5.87743558696e-06
5.83449187149e-06
5.80155221871e-06
5.77838424306e-06
5.76405193125e-06
1.21417155445e-66
1.21417155445e-66
1.21417155445e-66
1.21417155445e-66
1.21417155445e-66
1.21417155445e-66
1.21417155445e-66
1.21417155445e-66
1.21417155445e-66
1.21417155445e-66
1.21417155445e-66
1.21417155445e-66
1.21417155445e-66
1.21417155445e-66
1.21417155445e-66
1.21417155445e-66
1.21417155445e-66
1.21417155445e-66
1.21417155445e-66
1.21417155446e-66
1.21417155493e-66
1.2141715838e-66
1.2141733326e-66
1.21427335006e-66
1.21993673173e-66
1.29277408203e-66
2.23760406932e-10
0.000312213980623
5.67530161282e-05
2.26017783864e-05
1.59266183126e-05
1.39138237424e-05
1.31350837784e-05
1.26575872835e-05
1.22662098064e-05
1.1903499953e-05
1.15629215824e-05
1.12337197075e-05
1.09224483112e-05
1.06242402136e-05
1.0333428798e-05
1.0058166739e-05
9.7894470809e-06
9.53467866312e-06
9.28510107875e-06
9.04884591722e-06
8.81702988318e-06
8.59827851001e-06
8.38410372829e-06
8.18238459563e-06
7.98482325958e-06
7.79535619181e-06
7.61866217879e-06
7.44634125968e-06
7.28280316581e-06
7.13211209946e-06
6.98653798918e-06
6.85031001061e-06
6.727734613e-06
6.61080574526e-06
6.50401723116e-06
6.40745764379e-06
6.32517890262e-06
6.24901077282e-06
6.18309233458e-06
6.12771559839e-06
6.08260178473e-06
6.04779261351e-06
6.02729482353e-06
6.01213837024e-06
1.21417155444e-66
1.21417155444e-66
1.21417155444e-66
1.21417155444e-66
1.21417155444e-66
1.21417155444e-66
1.21417155444e-66
1.21417155444e-66
1.21417155445e-66
1.21417155445e-66
1.21417155445e-66
1.21417155445e-66
1.21417155445e-66
1.21417155445e-66
1.21417155445e-66
1.21417155445e-66
1.21417155445e-66