/*--------------------------------*- C++ -*----------------------------------*\
| =========                 |                                                 |
| \\      /  F ield         | foam-extend: Open Source CFD                    |
|  \\    /   O peration     | Version:     4.1                                |
|   \\  /    A nd           | Web:         http://www.foam-extend.org         |
|    \\/     M anipulation  |                                                 |
\*---------------------------------------------------------------------------*/
FoamFile
{
    version     2.0;
    format      ascii;
    class       volScalarField;
    location    "0.0003";
    object      NPlus;
}
// * * * * * * * * * * * * * * * * * * * * * * * * * * * * * * * * * * * * * //

dimensions      [0 0 0 0 0 0 0];

internalField   nonuniform List<scalar> 
8400
(
9.99867025639e-266
9.99867025646e-266
9.99867025652e-266
9.99867025658e-266
9.99867025664e-266
9.9986702567e-266
9.99867025676e-266
9.99867025682e-266
9.99867025688e-266
9.99867025693e-266
9.99867025699e-266
9.99867025704e-266
9.9986702571e-266
9.99867025715e-266
9.9986702572e-266
9.99867025725e-266
9.9986702573e-266
9.99867025735e-266
9.9986702574e-266
9.99867025744e-266
9.99867025749e-266
9.99867025754e-266
9.99867025758e-266
9.99867025765e-266
9.99867025944e-266
9.9986703702e-266
9.99867738197e-266
9.99909674456e-266
1.00248941344e-265
1.04296773963e-265
1.04281186981e-46
5.15528715331e-07
0.0541360598095
0.308470628206
0.463089779451
0.532088284143
0.558422206721
0.568276206187
0.571663515815
0.573114029847
0.574128827176
0.575065458979
0.575998918095
0.576951416938
0.577921155509
0.578919440046
0.57989434303
0.58096737731
0.582077357708
0.583230378406
0.584428776124
0.585669171454
0.586891164694
0.588209909351
0.58956101414
0.590939112659
0.592326899841
0.593716488733
0.595031472889
0.596376364924
0.597683465374
0.598924397838
0.600087729401
0.601155375515
0.60211031019
0.602928461861
0.603601740726
0.604055932586
0.604408817975
0.604881918816
9.99867024383e-266
9.99867024385e-266
9.99867024388e-266
9.9986702439e-266
9.99867024393e-266
9.99867024395e-266
9.99867024398e-266
9.998670244e-266
9.99867024402e-266
9.99867024405e-266
9.99867024407e-266
9.99867024409e-266
9.99867024411e-266
9.99867024413e-266
9.99867024416e-266
9.99867024418e-266
9.9986702442e-266
9.99867024422e-266
9.99867024424e-266
9.99867024426e-266
9.99867024428e-266
9.9986702443e-266
9.99867024432e-266
9.99867024447e-266
9.99867025348e-266
9.99867083772e-266
9.99870829086e-266
1.00010656775e-265
1.0092847083e-265
1.21800882143e-99
5.93115076545e-21
0.000101873971703
0.177649136221
0.395620137397
0.505942375523
0.551363426736
0.568376682766
0.573995624497
0.575871889671
0.57684368635
0.577694821926
0.578554343719
0.579444177903
0.580378203572
0.581357048577
0.582379402133
0.583450335855
0.584571785075
0.585741791693
0.586955281571
0.588217982594
0.589516718116
0.590850907753
0.592219809769
0.593549103616
0.594952684322
0.596351303091
0.597739480296
0.599098730012
0.600416149221
0.601682069005
0.602878811293
0.603988302296
0.60493868188
0.605830213432
0.606591516306
0.607215747015
0.6076933011
0.608018087015
0.608347108123
9.99867023928e-266
9.99867023929e-266
9.99867023931e-266
9.99867023932e-266
9.99867023934e-266
9.99867023935e-266
9.99867023937e-266
9.99867023938e-266
9.99867023939e-266
9.99867023941e-266
9.99867023942e-266
9.99867023943e-266
9.99867023945e-266
9.99867023946e-266
9.99867023947e-266
9.99867023949e-266
9.9986702395e-266
9.99867023951e-266
9.99867023952e-266
9.99867023953e-266
9.99867023955e-266
9.99867023956e-266
9.99867023958e-266
9.9986702405e-266
9.99867029873e-266
9.99867407432e-266
9.99890675106e-266
1.00136005029e-265
1.02862368363e-265
3.83303782957e-63
2.1029304667e-08
0.0229442745598
0.284570622012
0.455046160277
0.53210295455
0.562185925503
0.572848221687
0.576188997863
0.577493025876
0.578328019905
0.57912082264
0.579946218025
0.580816383434
0.581732994021
0.582697851173
0.583713578876
0.584782910786
0.585901117907
0.587066663177
0.588282378818
0.589537607044
0.590831392388
0.592160977943
0.593511823509
0.594881342864
0.596193355378
0.597559892883
0.598904687663
0.600214972421
0.601480918239
0.602687413138
0.603816961125
0.604861249587
0.605810928329
0.606585994248
0.60729962305
0.60787855983
0.608315978161
0.608610901224
0.608891196206
9.99867023706e-266
9.99867023707e-266
9.99867023708e-266
9.99867023709e-266
9.9986702371e-266
9.99867023711e-266
9.99867023712e-266
9.99867023713e-266
9.99867023714e-266
9.99867023715e-266
9.99867023716e-266
9.99867023717e-266
9.99867023718e-266
9.99867023718e-266
9.99867023719e-266
9.9986702372e-266
9.99867023721e-266
9.99867023722e-266
9.99867023723e-266
9.99867023724e-266
9.99867023724e-266
9.99867023725e-266
9.99867023732e-266
9.99867024089e-266
9.99867046526e-266
9.9986845113e-266
9.99951318763e-266
1.00493060119e-265
1.07080858002e-265
2.17113863378e-29
7.52351475769e-06
0.108521968949
0.352990836233
0.487776179109
0.544980064569
0.56675026183
0.573990089966
0.576328164261
0.577357207845
0.578186593128
0.579015047158
0.579882780676
0.580797580688
0.581758109694
0.58276613821
0.58382328262
0.584932609018
0.586086604353
0.587285732112
0.58853008137
0.589809373842
0.591122089117
0.592466463614
0.59376592348
0.595137162591
0.596500266272
0.597855238552
0.599182299213
0.600471748293
0.601713107232
0.602890769409
0.603930511418
0.604941502828
0.605852247498
0.606653741518
0.607337035496
0.607890999735
0.608308423821
0.6085883462
0.608845005996
9.99867023579e-266
9.99867023579e-266
9.9986702358e-266
9.99867023581e-266
9.99867023582e-266
9.99867023583e-266
9.99867023583e-266
9.99867023584e-266
9.99867023585e-266
9.99867023586e-266
9.99867023586e-266
9.99867023587e-266
9.99867023588e-266
9.99867023589e-266
9.99867023589e-266
9.9986702359e-266
9.99867023591e-266
9.99867023591e-266
9.99867023592e-266
9.99867023593e-266
9.99867023593e-266
9.99867023594e-266
9.99867023608e-266
9.99867024467e-266
9.99867080449e-266
9.99870696314e-266
1.00009980811e-265
1.00923947518e-265
1.20776771964e-99
5.62460693228e-21
0.000102256734025
0.177930521121
0.395831455814
0.505867589942
0.550962464606
0.567652356097
0.573182054941
0.575041613592
0.576052384336
0.576945020394
0.577853354363
0.578799251457
0.579786996911
0.580822092736
0.581901945142
0.583026888616
0.584197962254
0.585415950343
0.586671190142
0.587968020425
0.589297429547
0.590596789545
0.591975723207
0.593363823183
0.594757701914
0.596142497558
0.597508095405
0.598845342497
0.600140156696
0.60132274349
0.602495242753
0.603588756725
0.604589194221
0.605487739675
0.606275405306
0.606944354963
0.607487509838
0.607898797787
0.608176145873
0.608424976888
9.99867023498e-266
9.99867023499e-266
9.99867023499e-266
9.998670235e-266
9.99867023501e-266
9.99867023501e-266
9.99867023502e-266
9.99867023503e-266
9.99867023503e-266
9.99867023504e-266
9.99867023504e-266
9.99867023505e-266
9.99867023506e-266
9.99867023506e-266
9.99867023507e-266
9.99867023507e-266
9.99867023508e-266
9.99867023508e-266
9.99867023509e-266
9.99867023509e-266
9.9986702351e-266
9.99867023511e-266
9.99867023547e-266
9.99867025832e-266
9.99867173141e-266
9.99876222607e-266
1.00043900947e-265
1.01445650659e-265
3.49691983286e-99
1.33898440799e-16
0.000768358146973
0.230147045883
0.423934930775
0.516272065961
0.553251443474
0.5666801725
0.57109391084
0.572762523893
0.573852664785
0.574857713406
0.575872789386
0.576918384509
0.578006741046
0.57913425008
0.580302956631
0.581514338704
0.582763675084
0.584052367478
0.585383485334
0.586686503121
0.588081651975
0.589495291186
0.590925084049
0.592359378957
0.593790374354
0.595214511843
0.596553621263
0.5979157019
0.599232080679
0.600488127698
0.60167137546
0.602773249332
0.603784613898
0.604688468857
0.60547851689
0.606085689708
0.606629967939
0.60704188289
0.607320000201
0.607567254613
9.99867023443e-266
9.99867023443e-266
9.99867023444e-266
9.99867023445e-266
9.99867023445e-266
9.99867023446e-266
9.99867023446e-266
9.99867023447e-266
9.99867023447e-266
9.99867023448e-266
9.99867023448e-266
9.99867023449e-266
9.99867023449e-266
9.9986702345e-266
9.9986702345e-266
9.99867023451e-266
9.99867023451e-266
9.99867023452e-266
9.99867023452e-266
9.99867023453e-266
9.99867023453e-266
9.99867023455e-266
9.99867023527e-266
9.99867028162e-266
9.99867325724e-266
9.9988563654e-266
1.00105558958e-265
1.02461639139e-265
2.05109392854e-63
3.0469271943e-09
0.0126851952941
0.268859919959
0.442653663276
0.522080097429
0.553242470928
0.564498577627
0.568217904692
0.569842714873
0.571005517502
0.572117154124
0.573245132872
0.574405601339
0.575596407709
0.576822741102
0.578091117509
0.57939795808
0.580742872389
0.582060762036
0.583470636322
0.5849097111
0.586369638745
0.58784977275
0.589340403888
0.59083480954
0.592259610865
0.593728628109
0.595168274085
0.596566673426
0.597911378001
0.599195084551
0.60040596949
0.601464538065
0.60249311396
0.603410332354
0.604210026867
0.604886173743
0.605434012088
0.605850059594
0.606131333892
0.606376123839
9.99867023403e-266
9.99867023403e-266
9.99867023404e-266
9.99867023404e-266
9.99867023405e-266
9.99867023405e-266
9.99867023406e-266
9.99867023406e-266
9.99867023407e-266
9.99867023407e-266
9.99867023407e-266
9.99867023408e-266
9.99867023408e-266
9.99867023409e-266
9.99867023409e-266
9.9986702341e-266
9.9986702341e-266
9.9986702341e-266
9.99867023411e-266
9.99867023411e-266
9.99867023412e-266
9.99867023414e-266
9.99867023554e-266
9.99867032596e-266
9.99867614579e-266
9.99902943692e-266
1.00210650414e-265
1.03883818932e-265
5.86682402698e-47
2.72921285338e-07
0.0437844431044
0.299525593932
0.455568982144
0.525135830775
0.551804456893
0.56143959899
0.564718667569
0.566321947865
0.56757608889
0.568803949666
0.570051181254
0.571329846016
0.572635340482
0.573976196741
0.575288412483
0.576697365099
0.578139168164
0.57961080914
0.581112628281
0.582634200493
0.584176577838
0.585730499315
0.587229409723
0.588790088881
0.590332025079
0.591851836919
0.593341993361
0.594783040118
0.596171689982
0.597424292636
0.598666602748
0.599811862363
0.600855592693
0.601790450486
0.602609288446
0.603301255285
0.603859603915
0.604282141839
0.604566408223
0.604808027912
9.99867023372e-266
9.99867023373e-266
9.99867023373e-266
9.99867023374e-266
9.99867023374e-266
9.99867023374e-266
9.99867023375e-266
9.99867023375e-266
9.99867023376e-266
9.99867023376e-266
9.99867023376e-266
9.99867023377e-266
9.99867023377e-266
9.99867023378e-266
9.99867023378e-266
9.99867023378e-266
9.99867023379e-266
9.99867023379e-266
9.99867023379e-266
9.9986702338e-266
9.9986702338e-266
9.99867023384e-266
9.99867023633e-266
9.99867039509e-266
9.99868048904e-266
9.99928565282e-266
1.0036276263e-265
1.05674589211e-265
2.20933088225e-34
2.29045590981e-06
0.0772807667123
0.323289741405
0.464551566421
0.525800506015
0.549205618301
0.557736739537
0.560696613789
0.562270181995
0.563622141284
0.564971091524
0.566344196786
0.567748353008
0.569114086165
0.570573934052
0.572058562357
0.573577795613
0.575121141636
0.576694306449
0.578292179417
0.579907661023
0.581483885044
0.58311813353
0.58475474859
0.586377080078
0.587983349161
0.58956637193
0.5910489927
0.592541179694
0.593971500537
0.5953278886
0.596596660316
0.597771432656
0.598847339989
0.599742435979
0.600579339271
0.601286947937
0.601859967506
0.60229155401
0.602582977352
0.602826596837
9.99867023348e-266
9.99867023349e-266
9.99867023349e-266
9.9986702335e-266
9.9986702335e-266
9.9986702335e-266
9.99867023351e-266
9.99867023351e-266
9.99867023351e-266
9.99867023352e-266
9.99867023352e-266
9.99867023353e-266
9.99867023353e-266
9.99867023353e-266
9.99867023354e-266
9.99867023354e-266
9.99867023354e-266
9.99867023355e-266
9.99867023355e-266
9.99867023355e-266
9.99867023356e-266
9.99867023362e-266
9.99867023773e-266
9.9986704956e-266
9.99868658839e-266
9.9996329932e-266
1.00558681743e-265
1.07883557861e-265
7.70215974799e-27
1.01623622691e-05
0.109137411147
0.342469845989
0.470170086102
0.525017208542
0.545942431276
0.553182453482
0.55602835015
0.557688218105
0.559170448635
0.560651282406
0.562159276096
0.563632674423
0.56518931096
0.566770889106
0.568374950978
0.570010793354
0.571667239478
0.57335171394
0.574988762941
0.576702904366
0.578426731637
0.580153973728
0.581873657854
0.583577331922
0.585194139709
0.586842162782
0.588440894486
0.589986928622
0.591465078139
0.592862890138
0.594113097487
0.595323426558
0.596423711724
0.597409612
0.598267156026
0.598989898044
0.599574255812
0.600016755434
0.600315465396
0.600561072546
9.99867023329e-266
9.9986702333e-266
9.9986702333e-266
9.9986702333e-266
9.99867023331e-266
9.99867023331e-266
9.99867023331e-266
9.99867023332e-266
9.99867023332e-266
9.99867023332e-266
9.99867023333e-266
9.99867023333e-266
9.99867023333e-266
9.99867023334e-266
9.99867023334e-266
9.99867023334e-266
9.99867023334e-266
9.99867023335e-266
9.99867023335e-266
9.99867023335e-266
9.99867023336e-266
9.99867023346e-266
9.9986702398e-266
9.99867062945e-266
9.99869434676e-266
1.0000086536e-265
1.00775601161e-265
4.5510591074e-100
4.90469171211e-23
3.58810411226e-05
0.13872463985
0.359291470143
0.474271094479
0.522772466685
0.541368462792
0.548006100404
0.550799977875
0.552577625022
0.554218739857
0.555796913885
0.557449995095
0.559127689134
0.560817869075
0.562530812412
0.564266098489
0.566026080802
0.567742090529
0.569541298893
0.571346115226
0.573163760453
0.574984394902
0.576740772752
0.57855075802
0.580334643752
0.582093811165
0.583811039169
0.585477004054
0.587018240393
0.588548386057
0.589996343948
0.591345652588
0.592591780444
0.593730202756
0.594675114327
0.595559407758
0.596302667144
0.596903742916
0.597359048777
0.59766648955
0.597914921691
9.99867023313e-266
9.99867023314e-266
9.99867023314e-266
9.99867023314e-266
9.99867023315e-266
9.99867023315e-266
9.99867023315e-266
9.99867023316e-266
9.99867023316e-266
9.99867023316e-266
9.99867023317e-266
9.99867023317e-266
9.99867023317e-266
9.99867023317e-266
9.99867023318e-266
9.99867023318e-266
9.99867023318e-266
9.99867023318e-266
9.99867023319e-266
9.99867023319e-266
9.99867023319e-266
9.99867023335e-266
9.99867024333e-266
9.99867089342e-266
9.9987126851e-266
1.00013479622e-265
1.01010185405e-265
1.42207864112e-99
1.39349937919e-20
0.0001061707182
0.167074965537
0.372854909445
0.476896377404
0.519542825691
0.536247995719
0.542306150756
0.544971267014
0.546970443171
0.548725957148
0.550524473231
0.552338825811
0.55416697957
0.55601193964
0.557872589019
0.559692878376
0.561585874803
0.56348810838
0.565400763156
0.56732527302
0.569187884553
0.571116179423
0.573029326916
0.574926906036
0.576797241827
0.578573132349
0.580366699174
0.582102900932
0.583769313423
0.585364698029
0.586799668769
0.588197818809
0.589487154977
0.590656206257
0.591697043627
0.592603197489
0.593368106859
0.593986390974
0.594454570813
0.594771587676
0.595022075401
9.998670233e-266
9.998670233e-266
9.99867023301e-266
9.99867023301e-266
9.99867023301e-266
9.99867023302e-266
9.99867023302e-266
9.99867023302e-266
9.99867023303e-266
9.99867023303e-266
9.99867023303e-266
9.99867023303e-266
9.99867023304e-266
9.99867023304e-266
9.99867023304e-266
9.99867023304e-266
9.99867023305e-266
9.99867023305e-266
9.99867023305e-266
9.99867023305e-266
9.99867023306e-266
9.99867023334e-266
9.99867025176e-266
9.99867144928e-266
9.99874578022e-266
1.00033482455e-265
1.01323759066e-265
2.76074719907e-99
3.29154270486e-18
0.000319094053692
0.193646726034
0.384082875717
0.477709954
0.515626024191
0.530424215559
0.536003217691
0.53868778924
0.540803752528
0.54280846149
0.544800621078
0.546786722523
0.548782190329
0.550728622512
0.552745558468
0.554771102515
0.556804271468
0.558848159492
0.560833333792
0.562882756731
0.56491958393
0.56695403528
0.568967014216
0.570897380217
0.572863014815
0.574780890235
0.576651945356
0.578395142505
0.580128880294
0.581782475187
0.583337782973
0.584788513811
0.586129264431
0.587274376711
0.588351387892
0.589285591002
0.590073266031
0.590711039173
0.591194621759
0.591521568405
0.59177430266
9.99867023289e-266
9.99867023289e-266
9.99867023289e-266
9.9986702329e-266
9.9986702329e-266
9.9986702329e-266
9.99867023291e-266
9.99867023291e-266
9.99867023291e-266
9.99867023291e-266
9.99867023292e-266
9.99867023292e-266
9.99867023292e-266
9.99867023292e-266
9.99867023293e-266
9.99867023293e-266
9.99867023293e-266
9.99867023293e-266
9.99867023294e-266
9.99867023294e-266
9.99867023295e-266
9.99867023346e-266
9.99867026601e-266
9.99867233739e-266
9.99879771538e-266
1.00064854393e-265
1.01801292677e-265
4.61321385511e-99
6.53101614783e-14
0.00110934295887
0.219153808776
0.39333021031
0.477317644744
0.511015690485
0.524052811279
0.529191326845
0.531946112344
0.53425516986
0.536465147181
0.538646349986
0.54082322767
0.542937242551
0.545109894688
0.547287291032
0.549465159826
0.551590086383
0.553777759106
0.555956256378
0.558135049178
0.560237417907
0.562388853381
0.564517582281
0.566608354895
0.568666465956
0.570607946695
0.572560851218
0.574439201749
0.576245935782
0.577894072255
0.579509220364
0.581013168927
0.582396835079
0.58364613832
0.584756011178
0.585723392469
0.586475561513
0.587135002465
0.587633892579
0.587971689659
0.588227231495
9.99867023279e-266
9.9986702328e-266
9.9986702328e-266
9.9986702328e-266
9.9986702328e-266
9.99867023281e-266
9.99867023281e-266
9.99867023281e-266
9.99867023281e-266
9.99867023282e-266
9.99867023282e-266
9.99867023282e-266
9.99867023282e-266
9.99867023283e-266
9.99867023283e-266
9.99867023283e-266
9.99867023283e-266
9.99867023283e-266
9.99867023284e-266
9.99867023284e-266
9.99867023285e-266
9.99867023375e-266
9.99867029024e-266
9.99867386988e-266
9.99889116063e-266
1.00124765884e-265
1.02770675147e-265
2.83110294577e-63
5.67726487475e-09
0.0090905873171
0.242698321972
0.401932717956
0.475348213517
0.505430321492
0.517123476049
0.521886592049
0.524759015999
0.527258050844
0.529680441292
0.532013277587
0.534393931429
0.536757946393
0.539113348223
0.541402435143
0.543745098187
0.546086467946
0.548416631667
0.550679557515
0.552987260103
0.555281627748
0.55754861189
0.559725153604
0.561934222521
0.564090896419
0.566197896624
0.568161991495
0.570118180964
0.571996669749
0.57377803406
0.575454851234
0.576944963955
0.578372479159
0.579666635911
0.580814673734
0.581813076368
0.58265495384
0.583334297377
0.583849918533
0.584129673054
0.584390312868
9.99867023271e-266
9.99867023271e-266
9.99867023271e-266
9.99867023272e-266
9.99867023272e-266
9.99867023272e-266
9.99867023272e-266
9.99867023273e-266
9.99867023273e-266
9.99867023273e-266
9.99867023273e-266
9.99867023274e-266
9.99867023274e-266
9.99867023274e-266
9.99867023274e-266
9.99867023274e-266
9.99867023275e-266
9.99867023275e-266
9.99867023275e-266
9.99867023275e-266
9.99867023278e-266
9.99867023441e-266
9.9986703381e-266
9.99867691017e-266
9.99907119144e-266
1.00232714561e-265
1.04261397751e-265
7.4690813236e-47
2.81304930671e-07
0.0341626409829
0.265511353622
0.408380773912
0.473140401837
0.499373896902
0.509591582062
0.514104241863
0.517121477049
0.519850061644
0.522436931501
0.525048277476
0.527631956077
0.530197117211
0.532684826032
0.53521793608
0.537741467146
0.54018374892
0.542671743045
0.545139216172
0.547585371705
0.549943499612
0.552339551307
0.554693696211
0.556942579273
0.559201450796
0.561400819735
0.563528911803
0.565504278871
0.567461530264
0.569311862612
0.571048123859
0.572661238378
0.574074152004
0.575409703351
0.576594673156
0.577624710605
0.578493105752
0.579197065542
0.579731006056
0.580092910459
0.580354037006
9.99867023264e-266
9.99867023264e-266
9.99867023264e-266
9.99867023264e-266
9.99867023265e-266
9.99867023265e-266
9.99867023265e-266
9.99867023265e-266
9.99867023265e-266
9.99867023266e-266
9.99867023266e-266
9.99867023266e-266
9.99867023266e-266
9.99867023266e-266
9.99867023267e-266
9.99867023267e-266
9.99867023267e-266
9.99867023267e-266
9.99867023267e-266
9.99867023268e-266
9.99867023273e-266
9.9986702358e-266
9.99867042968e-266
9.99868260141e-266
9.9994032209e-266
1.00425031305e-265
1.06521362486e-265
6.3703420676e-34
2.52337260248e-06
0.0651014615364
0.285920417577
0.41287991113
0.469646329406
0.49257365885
0.5016222189
0.505957463771
0.509120709297
0.512002387761
0.514877752975
0.517709124588
0.520448386365
0.523215518423
0.525962843967
0.528625209135
0.5313223879
0.53400052042
0.536654723993
0.539220111719
0.541815635565
0.544377488378
0.546833093626
0.549306917021
0.5517329777
0.554026887197
0.556325645043
0.558543151642
0.560668685409
0.562632230726
0.5645519627
0.566356433774
0.568031758048
0.569566674406
0.570879109633
0.572106677572
0.57317003357
0.574068350096
0.574794102852
0.575343566239
0.575718233755
0.575985586601
9.99867023257e-266
9.99867023257e-266
9.99867023258e-266
9.99867023258e-266
9.99867023258e-266
9.99867023258e-266
9.99867023258e-266
9.99867023259e-266
9.99867023259e-266
9.99867023259e-266
9.99867023259e-266
9.99867023259e-266
9.9986702326e-266
9.9986702326e-266
9.9986702326e-266
9.9986702326e-266
9.9986702326e-266
9.99867023261e-266
9.99867023261e-266
9.99867023261e-266
9.99867023271e-266
9.99867023853e-266
9.9986705976e-266
9.99869249995e-266
9.99995146369e-266
1.0071763627e-265
8.79003818481e-101
6.64300901643e-25
1.47091389247e-05
0.0983154511279
0.304194698698
0.416241105338
0.464841245862
0.484933805075
0.493140507803
0.49737496157
0.500660527575
0.503831738572
0.506947352069
0.509956173631
0.512985656689
0.515975514922
0.51886346324
0.521778208278
0.524664639406
0.52745329028
0.530270559892
0.533056968423
0.535736881465
0.53843994776
0.541102265449
0.543636652426
0.546181066688
0.548651415342
0.55097520246
0.553283643934
0.555497747947
0.557603669
0.55952526358
0.561394987073
0.563124210496
0.564707801996
0.5661404421
0.567339073857
0.568439254548
0.5693653447
0.57011524412
0.570686650957
0.571075387536
0.571347267438
9.99867023251e-266
9.99867023252e-266
9.99867023252e-266
9.99867023252e-266
9.99867023252e-266
9.99867023252e-266
9.99867023253e-266
9.99867023253e-266
9.99867023253e-266
9.99867023253e-266
9.99867023253e-266
9.99867023254e-266
9.99867023254e-266
9.99867023254e-266
9.99867023254e-266
9.99867023254e-266
9.99867023254e-266
9.99867023255e-266
9.99867023255e-266
9.99867023255e-266
9.99867023273e-266
9.99867024362e-266
9.99867093049e-266
9.9987142514e-266
1.00013908113e-265
1.01070757711e-265
1.35968096662e-99
6.31316957607e-21
6.66879868206e-05
0.132804063085
0.320519793422
0.418121143186
0.459521124675
0.47662110978
0.484069062782
0.488313605642
0.491907587676
0.495335993448
0.498643678876
0.501948446104
0.505141866382
0.508354248103
0.51151750075
0.514577426075
0.517656210183
0.520687491311
0.523611884132
0.526553864516
0.529383956619
0.53222953405
0.535022406192
0.537682577476
0.540346693225
0.542933387694
0.545431085081
0.547769016804
0.55006921749
0.552255251826
0.554247659784
0.556178463785
0.557962815634
0.559598540098
0.561078752956
0.562313380298
0.563448871696
0.564401446863
0.565173559439
0.565761209781
0.566163117911
0.566436690655
9.99867023246e-266
9.99867023246e-266
9.99867023247e-266
9.99867023247e-266
9.99867023247e-266
9.99867023247e-266
9.99867023247e-266
9.99867023248e-266
9.99867023248e-266
9.99867023248e-266
9.99867023248e-266
9.99867023248e-266
9.99867023248e-266
9.99867023249e-266
9.99867023249e-266
9.99867023249e-266
9.99867023249e-266
9.99867023249e-266
9.9986702325e-266
9.9986702325e-266
9.99867023291e-266
9.99867025879e-266
9.99867190333e-266
9.99877148066e-266
1.00047763976e-265
1.01596604803e-265
3.31439267131e-99
1.79571884854e-17
0.000298089914022
0.167177897497
0.334542785734
0.418116962984
0.453020312175
0.467949747477
0.474654735228
0.47899258038
0.482843601882
0.486489466103
0.490106316886
0.493592959503
0.497082006511
0.50044919118
0.503825831199
0.50715183427
0.510356060865
0.513580355547
0.516680018985
0.51979227087
0.522844312738
0.525764226816
0.528694079807
0.53154934217
0.5342571908
0.536951586723
0.539559454194
0.541985517303
0.544374052986
0.546649064793
0.548788233718
0.550713415345
0.552560807803
0.554244676246
0.555764822535
0.557035014397
0.558204935264
0.559190456173
0.559989278311
0.560595110446
0.561010660113
0.561287351065
9.99867023242e-266
9.99867023242e-266
9.99867023242e-266
9.99867023242e-266
9.99867023242e-266
9.99867023242e-266
9.99867023243e-266
9.99867023243e-266
9.99867023243e-266
9.99867023243e-266
9.99867023243e-266
9.99867023244e-266
9.99867023244e-266
9.99867023244e-266
9.99867023244e-266
9.99867023244e-266
9.99867023244e-266
9.99867023245e-266
9.99867023245e-266
9.99867023246e-266
9.99867023342e-266
9.99867029298e-266
9.99867396059e-266
9.99888936063e-266
1.00118107193e-265
1.02715527048e-265
1.92571303356e-63
9.39871092689e-10
0.0021487307953
0.199916394995
0.346202152866
0.416309826807
0.445854214586
0.458551468816
0.464867285681
0.46935903596
0.473420306388
0.477402221299
0.481230674806
0.485038816281
0.488712336267
0.492371809255
0.495891176946
0.499421998556
0.502815292374
0.506221856702
0.509559632957
0.512769645708
0.515984751849
0.519056100471
0.522123851899
0.525116665543
0.527940953074
0.530746918983
0.533446382618
0.535964669981
0.538443065683
0.540793972821
0.543002746315
0.544985180492
0.546890128458
0.548633849425
0.550201708662
0.551512320964
0.552715737825
0.553727162993
0.554547132118
0.555173100758
0.555603395224
0.55588795871
9.99867023237e-266
9.99867023238e-266
9.99867023238e-266
9.99867023238e-266
9.99867023238e-266
9.99867023238e-266
9.99867023238e-266
9.99867023239e-266
9.99867023239e-266
9.99867023239e-266
9.99867023239e-266
9.99867023239e-266
9.9986702324e-266
9.9986702324e-266
9.9986702324e-266
9.9986702324e-266
9.9986702324e-266
9.9986702324e-266
9.99867023241e-266
9.99867023244e-266
9.99867023472e-266
9.99867037648e-266
9.99867914516e-266
9.99919426194e-266
1.00298682567e-265
1.05174626252e-265
1.61682762482e-41
4.36527138287e-07
0.0264026778418
0.230635477247
0.35554519409
0.413496869016
0.437976458436
0.448893046033
0.454822934923
0.459442304263
0.463834908137
0.468031442408
0.472189219717
0.476184571193
0.480150086868
0.483977425102
0.487794640698
0.491465823718
0.495130949773
0.49864944768
0.50216211793
0.505530702822
0.508899797262
0.512112556254
0.515314177496
0.518429995138
0.521381437058
0.524300476718
0.5271078984
0.529722721456
0.532281701122
0.534709935713
0.536908871865
0.539032346733
0.540991244168
0.542778200015
0.544388117765
0.545734718314
0.546971367072
0.548013518368
0.54885726701
0.549500629084
0.549947430517
0.550234011613
9.99867023234e-266
9.99867023234e-266
9.99867023234e-266
9.99867023234e-266
9.99867023234e-266
9.99867023234e-266
9.99867023235e-266
9.99867023235e-266
9.99867023235e-266
9.99867023235e-266
9.99867023235e-266
9.99867023235e-266
9.99867023236e-266
9.99867023236e-266
9.99867023236e-266
9.99867023236e-266
9.99867023236e-266
9.99867023236e-266
9.99867023237e-266
9.99867023246e-266
9.99867023826e-266
9.99867059273e-266
9.9986920645e-266
9.99992007976e-266
1.0069455131e-265
1.09637527746e-265
1.539329286e-26
7.8027357268e-06
0.0681037043956
0.256091835896
0.361892293773
0.408980770281
0.429309376628
0.438736160881
0.444484660155
0.449389176422
0.453998182028
0.458530266228
0.462886593177
0.467132476963
0.471347747556
0.475400679213
0.479426497104
0.483301110238
0.487161200443
0.490867994783
0.494564896457
0.498099403642
0.501614338688
0.504968201143
0.508303621821
0.511547328422
0.514606709049
0.517631934485
0.520538406242
0.523244226949
0.52589123602
0.528394767119
0.530664850927
0.532851997849
0.534865669493
0.536698988674
0.538265318747
0.539726696963
0.540994923457
0.542062030328
0.542930836107
0.543597578823
0.543975154917
0.544266593817
9.9986702323e-266
9.9986702323e-266
9.9986702323e-266
9.99867023231e-266
9.99867023231e-266
9.99867023231e-266
9.99867023231e-266
9.99867023231e-266
9.99867023232e-266
9.99867023232e-266
9.99867023232e-266
9.99867023232e-266
9.99867023232e-266
9.99867023232e-266
9.99867023232e-266
9.99867023233e-266
9.99867023233e-266
9.99867023233e-266
9.99867023233e-266
9.99867023258e-266
9.9986702475e-266
9.99867118706e-266
9.9987296694e-266
1.00023022861e-265
1.01268931655e-265
1.80584579151e-99
3.06497681543e-20
6.57473279404e-05
0.112677569485
0.278909193858
0.364967386964
0.403037021253
0.419964284824
0.428247410819
0.433966778457
0.439079101698
0.443985150916
0.448811612619
0.453443045533
0.4580026618
0.462390576435
0.466660119305
0.470907876927
0.474978308773
0.479025083522
0.482905644471
0.48676907967
0.490462928196
0.494133350316
0.497635431177
0.501108222639
0.504470210867
0.507641916346
0.510769423758
0.513689475225
0.516556758025
0.519281169423
0.521774014129
0.52418852494
0.526434045868
0.528502613428
0.530300444298
0.531996156042
0.533496079023
0.534794970936
0.535894265604
0.536694337307
0.537383805163
0.537861641457
0.538160364157
9.99867023227e-266
9.99867023227e-266
9.99867023227e-266
9.99867023227e-266
9.99867023228e-266
9.99867023228e-266
9.99867023228e-266
9.99867023228e-266
9.99867023228e-266
9.99867023228e-266
9.99867023229e-266
9.99867023229e-266
9.99867023229e-266
9.99867023229e-266
9.99867023229e-266
9.99867023229e-266
9.9986702323e-266
9.9986702323e-266
9.99867023231e-266
9.99867023311e-266
9.99867028261e-266
9.99867331612e-266
9.9988501443e-266
1.00091721144e-265
1.02306404113e-265
5.17339713499e-99
3.53343051463e-13
0.000520348072868
0.155456804084
0.295864216191
0.365346512103
0.39601573876
0.409849322649
0.417489148848
0.423282933864
0.428667697103
0.433919643267
0.4389507155
0.443845094561
0.448662808771
0.453295791486
0.457803213782
0.462254239701
0.466516939629
0.470749219098
0.474801147566
0.478831557806
0.482669411821
0.486492260857
0.490123199798
0.493722024117
0.497125450131
0.50048599994
0.50371869692
0.506736943598
0.509689342198
0.512485826938
0.515037050324
0.517510224656
0.519809665066
0.521841134017
0.52376628282
0.52549797218
0.527032074072
0.528268887488
0.529393504561
0.530308816989
0.531013847336
0.531510686741
0.531818776474
9.99867023224e-266
9.99867023224e-266
9.99867023224e-266
9.99867023225e-266
9.99867023225e-266
9.99867023225e-266
9.99867023225e-266
9.99867023225e-266
9.99867023225e-266
9.99867023226e-266