/*--------------------------------*- C++ -*----------------------------------*\
| =========                 |                                                 |
| \\      /  F ield         | foam-extend: Open Source CFD                    |
|  \\    /   O peration     | Version:     4.1                                |
|   \\  /    A nd           | Web:         http://www.foam-extend.org         |
|    \\/     M anipulation  |                                                 |
\*---------------------------------------------------------------------------*/
FoamFile
{
    version     2.0;
    format      ascii;
    class       volScalarField;
    location    "0.0003";
    object      O;
}
// * * * * * * * * * * * * * * * * * * * * * * * * * * * * * * * * * * * * * //

dimensions      [0 0 0 0 0 0 0];

internalField   nonuniform List<scalar> 
8400
(
7.23199833782e-54
7.23199833786e-54
7.2319983379e-54
7.23199833793e-54
7.23199833797e-54
7.231998338e-54
7.23199833803e-54
7.23199833807e-54
7.2319983381e-54
7.23199833813e-54
7.23199833816e-54
7.23199833819e-54
7.23199833822e-54
7.23199833825e-54
7.23199833828e-54
7.23199833831e-54
7.23199833834e-54
7.23199833836e-54
7.23199833839e-54
7.23199833842e-54
7.23199833844e-54
7.23199833847e-54
7.2319983385e-54
7.23199833854e-54
7.23199833954e-54
7.2319984021e-54
7.23200236199e-54
7.23223919673e-54
7.2468082554e-54
7.47540933162e-54
2.79220234881e-07
0.2311572622
0.221940870355
0.16760869107
0.123737758226
0.0998853356269
0.0898122860241
0.0858912889166
0.0845377218178
0.083969582566
0.0835785670034
0.0832193929125
0.0828613593469
0.0824951609834
0.0821219350133
0.0817371485781
0.0813606439948
0.0809454428087
0.0805151535466
0.0800667612517
0.0795994711837
0.0791147300752
0.0786364395671
0.0781191320228
0.0775880787793
0.0770451904825
0.0764973577969
0.0759477204286
0.0754267156113
0.0748923895215
0.0743723500528
0.0738777287838
0.0734129335973
0.0729856048421
0.0726029255325
0.0722744441695
0.0720040007469
0.0718213345168
0.0716791940136
0.0714821610463
7.23199833073e-54
7.23199833074e-54
7.23199833076e-54
7.23199833077e-54
7.23199833079e-54
7.2319983308e-54
7.23199833081e-54
7.23199833083e-54
7.23199833084e-54
7.23199833085e-54
7.23199833087e-54
7.23199833088e-54
7.23199833089e-54
7.2319983309e-54
7.23199833091e-54
7.23199833093e-54
7.23199833094e-54
7.23199833095e-54
7.23199833096e-54
7.23199833097e-54
7.23199833098e-54
7.23199833099e-54
7.231998331e-54
7.23199833109e-54
7.23199833618e-54
7.23199866613e-54
7.23201981777e-54
7.23335115032e-54
7.28518463761e-54
3.11744871918e-19
0.069264815169
0.23193011459
0.197488635498
0.144280284275
0.109333019054
0.0926313694881
0.0859199261436
0.0836453362635
0.0828911591425
0.0825081071218
0.0821758365817
0.0818409402803
0.0814938278608
0.0811289786149
0.080746196107
0.0803457172775
0.0799259764323
0.0794859818449
0.0790262778139
0.0785488691492
0.0780514862595
0.0775390461814
0.0770118396202
0.0764696334503
0.075942538083
0.0753850393886
0.074828371507
0.0742750643101
0.0737322347343
0.0732051150561
0.0726977383571
0.0722172058577
0.0717709149324
0.0713883573626
0.0710288122095
0.0707215880804
0.0704692366306
0.0702760952148
0.0701446138154
0.0700066134622
7.23199832816e-54
7.23199832817e-54
7.23199832818e-54
7.23199832819e-54
7.23199832819e-54
7.2319983282e-54
7.23199832821e-54
7.23199832822e-54
7.23199832823e-54
7.23199832823e-54
7.23199832824e-54
7.23199832825e-54
7.23199832826e-54
7.23199832826e-54
7.23199832827e-54
7.23199832828e-54
7.23199832828e-54
7.23199832829e-54
7.2319983283e-54
7.2319983283e-54
7.23199832831e-54
7.23199832832e-54
7.23199832833e-54
7.23199832885e-54
7.23199836174e-54
7.232000494e-54
7.23213189803e-54
7.24043018453e-54
7.39440137135e-54
6.61363985954e-11
0.230422656642
0.22791698721
0.173470517792
0.126328358361
0.0999322495917
0.08841680744
0.0841341879926
0.0827783836469
0.0822573886314
0.0819290194613
0.0816185271732
0.0812956542589
0.0809547794198
0.0805954486948
0.0802170531163
0.0798185713905
0.0793985902658
0.0789589167395
0.0785001383297
0.0780211808479
0.077525874439
0.0770145882875
0.0764879783751
0.0759523675589
0.075408442868
0.0748864629004
0.0743419128493
0.0738050516116
0.0732809868373
0.0727738593713
0.0722897511755
0.07183570527
0.0714153921767
0.0710324935975
0.0707197918102
0.0704313349542
0.070197363824
0.0700202577901
0.0699007543009
0.0697835709723
7.2319983269e-54
7.23199832691e-54
7.23199832692e-54
7.23199832692e-54
7.23199832693e-54
7.23199832693e-54
7.23199832694e-54
7.23199832694e-54
7.23199832695e-54
7.23199832696e-54
7.23199832696e-54
7.23199832697e-54
7.23199832697e-54
7.23199832698e-54
7.23199832698e-54
7.23199832699e-54
7.23199832699e-54
7.231998327e-54
7.231998327e-54
7.23199832701e-54
7.23199832701e-54
7.23199832702e-54
7.23199832705e-54
7.23199832907e-54
7.23199845578e-54
7.23200638827e-54
7.23247438268e-54
7.26059484687e-54
7.6326402914e-54
0.0023912828052
0.231593189269
0.211470758179
0.156090656494
0.115594546005
0.0950952081356
0.0865904910039
0.0836625001246
0.082718367238
0.0823102716576
0.0819853984717
0.0816616200777
0.0813226684528
0.0809645889282
0.0805883705632
0.0801933217459
0.0797788248043
0.0793432559281
0.0788896219993
0.078417770205
0.077927579585
0.0774228743635
0.0769042149528
0.0763716921877
0.0758565940225
0.0753120760146
0.0747696763905
0.0742297820414
0.073699904942
0.0731840842846
0.072686714528
0.0722140598236
0.0717962395725
0.0713894478194
0.0710223587103
0.0706989927305
0.070422848876
0.0701989880146
0.0700300957615
0.0699167312704
0.0698096027038
7.23199832619e-54
7.23199832619e-54
7.2319983262e-54
7.2319983262e-54
7.23199832621e-54
7.23199832621e-54
7.23199832621e-54
7.23199832622e-54
7.23199832622e-54
7.23199832623e-54
7.23199832623e-54
7.23199832624e-54
7.23199832624e-54
7.23199832624e-54
7.23199832625e-54
7.23199832625e-54
7.23199832626e-54
7.23199832626e-54
7.23199832626e-54
7.23199832627e-54
7.23199832627e-54
7.23199832627e-54
7.23199832635e-54
7.2319983312e-54
7.23199864736e-54
7.23201906793e-54
7.23331297529e-54
7.2849291839e-54
3.09049909974e-19
0.0689289493475
0.231930371856
0.19743096189
0.144219452463
0.109353554385
0.0927731741554
0.0861930968517
0.0839596454232
0.0832149587183
0.0828177543685
0.0824699641964
0.082116317687
0.0817480375902
0.0813631948084
0.0809588388309
0.0805365287193
0.0800961798408
0.0796374165811
0.079159370932
0.0786660714206
0.0781557947239
0.0776318539573
0.0771190639996
0.0765736598371
0.0760237467635
0.0754707435095
0.074920215112
0.0743763661887
0.0738429206886
0.0733252706969
0.0728518321499
0.0723816860712
0.0719423771339
0.0715400370779
0.0711782747353
0.0708605521487
0.0705905883538
0.0703711280625
0.070204948588
0.0700928555779
0.069989049948
7.23199832573e-54
7.23199832574e-54
7.23199832574e-54
7.23199832574e-54
7.23199832575e-54
7.23199832575e-54
7.23199832575e-54
7.23199832576e-54
7.23199832576e-54
7.23199832577e-54
7.23199832577e-54
7.23199832577e-54
7.23199832578e-54
7.23199832578e-54
7.23199832578e-54
7.23199832578e-54
7.23199832579e-54
7.23199832579e-54
7.23199832579e-54
7.2319983258e-54
7.2319983258e-54
7.23199832581e-54
7.23199832601e-54
7.23199833892e-54
7.23199917084e-54
7.23205027764e-54
7.2352286127e-54
7.31439233384e-54
9.4210847505e-19
0.182254660381
0.232125013117
0.186122610273
0.135952895704
0.105649001619
0.0918447315448
0.0865308972888
0.0847565032345
0.0840956862499
0.0836709480042
0.0832813133862
0.0828880133716
0.0824826087343
0.0820601340992
0.0816220370967
0.0811671861827
0.0806945421938
0.0802063210401
0.0797020184887
0.0791799385197
0.0786683891463
0.0781197407986
0.0775628624407
0.0769986171127
0.0764312600831
0.0758643554832
0.0752991369381
0.0747665365901
0.0742239187244
0.0736985785413
0.07319633698
0.072722455079
0.0722805122022
0.0718741933487
0.071510585496
0.0711924467455
0.0709476898487
0.0707281281374
0.0705618853768
0.0704494499055
0.070346576693
7.23199832542e-54
7.23199832542e-54
7.23199832543e-54
7.23199832543e-54
7.23199832543e-54
7.23199832544e-54
7.23199832544e-54
7.23199832544e-54
7.23199832545e-54
7.23199832545e-54
7.23199832545e-54
7.23199832545e-54
7.23199832546e-54
7.23199832546e-54
7.23199832546e-54
7.23199832546e-54
7.23199832547e-54
7.23199832547e-54
7.23199832547e-54
7.23199832548e-54
7.23199832548e-54
7.23199832549e-54
7.2319983259e-54
7.23199835207e-54
7.23200003255e-54
7.23210344276e-54
7.23871074474e-54
7.37177021526e-54
3.42207065369e-11
0.229819033523
0.229932975307
0.17723119823
0.130213187807
0.103523341042
0.0917933316694
0.0873421458507
0.0858571670997
0.0852204675997
0.0847708469983
0.0843424970761
0.0839077565121
0.0834598731284
0.0829998037856
0.0825253264432
0.0820339894809
0.0815270657813
0.081003945365
0.0804900373733
0.0799391998262
0.0793758297989
0.0788032007068
0.0782216918511
0.0776348905725
0.0770453732183
0.0764821255548
0.0759002860617
0.0753291640868
0.0747731302255
0.0742375259573
0.0737253428566
0.0732412093487
0.0728175750425
0.0724050003002
0.0720368119593
0.0717155948421
0.071443409323
0.071222795139
0.0710551411052
0.0709416577653
0.0708401110792
7.23199832519e-54
7.2319983252e-54
7.2319983252e-54
7.2319983252e-54
7.2319983252e-54
7.23199832521e-54
7.23199832521e-54
7.23199832521e-54
7.23199832522e-54
7.23199832522e-54
7.23199832522e-54
7.23199832522e-54
7.23199832523e-54
7.23199832523e-54
7.23199832523e-54
7.23199832523e-54
7.23199832523e-54
7.23199832524e-54
7.23199832524e-54
7.23199832524e-54
7.23199832524e-54
7.23199832526e-54
7.23199832605e-54
7.23199837712e-54
7.23200166386e-54
7.23220118479e-54
7.24464577767e-54
7.45208772387e-54
1.52153619766e-07
0.231032000553
0.223916471576
0.169836165049
0.126133144146
0.102373336344
0.0922873537311
0.0884904565524
0.0871934378214
0.0865714051421
0.0860902724369
0.0856199402982
0.0851418008633
0.0846508651474
0.0841492176606
0.083632942346
0.0831270572066
0.0825828118846
0.0820249776536
0.0814546462241
0.0808709981226
0.0802778803837
0.079675158932
0.0790665226706
0.0784784332387
0.0778647088913
0.0772570434128
0.0766567898435
0.0760670136524
0.0754957159084
0.0749440759747
0.0744455310368
0.0739503742162
0.0734929407091
0.0730754707281
0.0727011363479
0.0723726937733
0.0720949913757
0.0718706789684
0.0717009410697
0.0715867039342
0.0714867500933
7.23199832502e-54
7.23199832502e-54
7.23199832503e-54
7.23199832503e-54
7.23199832503e-54
7.23199832503e-54
7.23199832504e-54
7.23199832504e-54
7.23199832504e-54
7.23199832504e-54
7.23199832505e-54
7.23199832505e-54
7.23199832505e-54
7.23199832505e-54
7.23199832505e-54
7.23199832506e-54
7.23199832506e-54
7.23199832506e-54
7.23199832506e-54
7.23199832506e-54
7.23199832507e-54
7.23199832509e-54
7.23199832649e-54
7.23199841615e-54
7.2320041167e-54
7.23234588255e-54
7.25323630488e-54
7.55322135553e-54
0.000127549058989
0.231412564809
0.21752664692
0.163873426436
0.123228736998
0.102080436291
0.0932207342988
0.0898795531655
0.0887225339857
0.0881182534389
0.0876035272243
0.0870901393478
0.086566945348
0.0860312065055
0.0855093862839
0.0849504615879
0.0843811000123
0.0837973571169
0.0832030375618
0.0825959566098
0.0819781864923
0.0813522378572
0.0807402580102
0.0801032937814
0.0794636183182
0.078827898741
0.0781971459199
0.0775740315911
0.0769893870094
0.0763997107834
0.0758334394244
0.0752953656967
0.0747910578712
0.0743234662456
0.0738945813523
0.0735371996146
0.0732026288521
0.0729193397497
0.0726899410137
0.0725169123835
0.0724000711431
0.0722997795518
7.23199832489e-54
7.23199832489e-54
7.23199832489e-54
7.23199832489e-54
7.2319983249e-54
7.2319983249e-54
7.2319983249e-54
7.2319983249e-54
7.2319983249e-54
7.23199832491e-54
7.23199832491e-54
7.23199832491e-54
7.23199832491e-54
7.23199832491e-54
7.23199832492e-54
7.23199832492e-54
7.23199832492e-54
7.23199832492e-54
7.23199832492e-54
7.23199832493e-54
7.23199832493e-54
7.23199832497e-54
7.23199832728e-54
7.23199847292e-54
7.23200756131e-54
7.23254204279e-54
7.26430082369e-54
7.67797271221e-54
0.00595291330352
0.23163152513
0.21136566029
0.158901264099
0.121370028743
0.102306370085
0.0944026989206
0.0915825820467
0.0904854985669
0.089856043514
0.0892968630361
0.0887376384652
0.0881671827808
0.0876087567329
0.0870175200425
0.0864157011762
0.0858042160145
0.0851791382116
0.0845448928925
0.0838982565433
0.083268618577
0.0826074774516
0.0819413515425
0.0812722498553
0.080604499791
0.0799409835908
0.0793088406746
0.0786628034886
0.0780348331369
0.0774262884059
0.0768431834345
0.0762907189607
0.0757958495952
0.0753156928066
0.0748784653313
0.0744861778425
0.074144691204
0.0738565880463
0.073623417169
0.0734466128898
0.0733272915361
0.0732266438771
7.23199832478e-54
7.23199832478e-54
7.23199832478e-54
7.23199832478e-54
7.23199832479e-54
7.23199832479e-54
7.23199832479e-54
7.23199832479e-54
7.23199832479e-54
7.2319983248e-54
7.2319983248e-54
7.2319983248e-54
7.2319983248e-54
7.2319983248e-54
7.23199832481e-54
7.23199832481e-54
7.23199832481e-54
7.23199832481e-54
7.23199832481e-54
7.23199832481e-54
7.23199832482e-54
7.23199832487e-54
7.23199832845e-54
7.23199854851e-54
7.23201194284e-54
7.2327981808e-54
7.2765513333e-54
1.14735624022e-19
0.0320212712856
0.231795926264
0.205504637244
0.154410370167
0.119991629815
0.103058484852
0.0960644317499
0.0935074741159
0.0924442767451
0.0917777762528
0.0911648445332
0.0905746145923
0.0899549718966
0.0893246024624
0.0886875651241
0.0880402247267
0.0873829505006
0.0867144734698
0.0860615185867
0.0853748319046
0.0846844440434
0.0839875519747
0.083287548376
0.0826106781068
0.0819113094236
0.081220359083
0.0805372566521
0.0798687907952
0.0792179336376
0.0786139476581
0.078013032543
0.0774432601622
0.0769111285591
0.0764189064051
0.0759686093119
0.0755940817792
0.0752431430568
0.0749479462272
0.0747091536137
0.0745280282509
0.0744057626203
0.0743044779755
7.23199832469e-54
7.23199832469e-54
7.23199832469e-54
7.23199832469e-54
7.2319983247e-54
7.2319983247e-54
7.2319983247e-54
7.2319983247e-54
7.2319983247e-54
7.23199832471e-54
7.23199832471e-54
7.23199832471e-54
7.23199832471e-54
7.23199832471e-54
7.23199832471e-54
7.23199832472e-54
7.23199832472e-54
7.23199832472e-54
7.23199832472e-54
7.23199832472e-54
7.23199832472e-54
7.23199832481e-54
7.23199833045e-54
7.23199869758e-54
7.23202229941e-54
7.23351057037e-54
7.28979946275e-54
3.66774511807e-19
0.0778775232634
0.231929641446
0.199727734511
0.150697314499
0.119089229224
0.104160999944
0.0979171491067
0.0956122375311
0.0946111803062
0.0938697130269
0.0932200966201
0.0925530784068
0.091878765015
0.0911976666143
0.0905086601089
0.0898119142444
0.0891283639634
0.0884149241485
0.0876957368836
0.0869706722279
0.0862389632847
0.0855291037991
0.0847920355915
0.0840589946097
0.0833299110013
0.0826094613928
0.0819234888881
0.0812287876559
0.0805547015597
0.0799063899268
0.0792841003286
0.0787228606301
0.0781741475913
0.0776671089579
0.0772065604077
0.0767959489144
0.0764379815065
0.0761355797947
0.0758911161165
0.0757058776207
0.0755803450337
0.0754787709987
7.23199832461e-54
7.23199832462e-54
7.23199832462e-54
7.23199832462e-54
7.23199832462e-54
7.23199832462e-54
7.23199832462e-54
7.23199832463e-54
7.23199832463e-54
7.23199832463e-54
7.23199832463e-54
7.23199832463e-54
7.23199832463e-54
7.23199832464e-54
7.23199832464e-54
7.23199832464e-54
7.23199832464e-54
7.23199832464e-54
7.23199832464e-54
7.23199832464e-54
7.23199832465e-54
7.23199832481e-54
7.23199833521e-54
7.23199901151e-54
7.23204098986e-54
7.23464022903e-54
7.3075085143e-54
7.34354172011e-19
0.142450338037
0.232058481809
0.194146235123
0.147558944457
0.118773764363
0.105504003488
0.100012745303
0.0979209719853
0.0969269143117
0.0961507936045
0.0954161822881
0.0946843178086
0.0939525131496
0.0932154230188
0.0924943290246
0.091745113499
0.0909906246197
0.0902308307552
0.0894650266437
0.0887191331767
0.0879458949576
0.0871747066824
0.0864021899663
0.0856353837647
0.0848983024069
0.0841456062396
0.0834090521695
0.0826884421213
0.0820157706114
0.0813447939524
0.080703139657
0.0800984488611
0.0795331980614
0.079009833284
0.0785620287967
0.0781397325865
0.077772839943
0.0774628981251
0.0772117460496
0.0770212845799
0.076892627137
0.0767908715853
7.23199832455e-54
7.23199832455e-54
7.23199832455e-54
7.23199832456e-54
7.23199832456e-54
7.23199832456e-54
7.23199832456e-54
7.23199832456e-54
7.23199832456e-54
7.23199832457e-54
7.23199832457e-54
7.23199832457e-54
7.23199832457e-54
7.23199832457e-54
7.23199832457e-54
7.23199832457e-54
7.23199832457e-54
7.23199832458e-54
7.23199832458e-54
7.23199832458e-54
7.23199832458e-54
7.23199832487e-54
7.23199834325e-54
7.23199951307e-54
7.2320703202e-54
7.23641195716e-54
7.33447719301e-54
1.28422413218e-18
0.215808575534
0.232110478254
0.188618256684
0.144921508365
0.1188554558
0.107084631237
0.102288965659
0.100388773621
0.0993858103246
0.0985505579214
0.0977493959326
0.0969559409338
0.0961613922088
0.0953876475488
0.0945900191556
0.0937878934589
0.0929831894611
0.0921958008764
0.091382478897
0.0905699828335
0.0897548379534
0.0889657279268
0.0881559382943
0.087351645775
0.0865584815187
0.0857753057736
0.0850345207192
0.0842870647788
0.0835664093219
0.0828712040782
0.0822355364691
0.081611141468
0.0810282993758
0.0804910964933
0.0800053853689
0.0795729177924
0.0791955126389
0.0789021119104
0.0786442103028
0.0784492163179
0.0783172475118
0.0782153135532
7.2319983245e-54
7.2319983245e-54
7.2319983245e-54
7.2319983245e-54
7.2319983245e-54
7.2319983245e-54
7.23199832451e-54
7.23199832451e-54
7.23199832451e-54
7.23199832451e-54
7.23199832451e-54
7.23199832451e-54
7.23199832451e-54
7.23199832452e-54
7.23199832452e-54
7.23199832452e-54
7.23199832452e-54
7.23199832452e-54
7.23199832452e-54
7.23199832452e-54
7.23199832453e-54
7.23199832504e-54
7.23199835694e-54
7.23200037854e-54
7.23212309335e-54
7.23979545459e-54
7.38922300314e-54
4.86334003895e-11
0.230022918591
0.230651502215
0.183351251174
0.142426253342
0.11945727742
0.10899542321
0.104743901961
0.103008988119
0.101977540124
0.101084474232
0.100216482596
0.0993780616861
0.0985196066733
0.0976638529029
0.0968077635384
0.0959721388567
0.095114410293
0.0942540003128
0.0933948562095
0.0925579164448
0.0917013168536
0.0908468372833
0.0899997782307
0.089183940847
0.088353146169
0.0875395153103
0.0867422635901
0.08599576476
0.0852499421398
0.0845318658699
0.0838488774461
0.0832044888452
0.0826305927366
0.0820796781582
0.0815796037014
0.0811351623015
0.0807477112781
0.0804207911762
0.0801568449448
0.0799566006318
0.0798481506845
0.0797449279944
7.23199832445e-54
7.23199832445e-54
7.23199832445e-54
7.23199832445e-54
7.23199832446e-54
7.23199832446e-54
7.23199832446e-54
7.23199832446e-54
7.23199832446e-54
7.23199832446e-54
7.23199832446e-54
7.23199832446e-54
7.23199832447e-54
7.23199832447e-54
7.23199832447e-54
7.23199832447e-54
7.23199832447e-54
7.23199832447e-54
7.23199832447e-54
7.23199832447e-54
7.23199832449e-54
7.23199832541e-54
7.23199838397e-54
7.23200209554e-54
7.23222476562e-54
7.24589184892e-54
7.47341146241e-54
2.00709652287e-07
0.231029104128
0.225768326788
0.178086233643
0.140522265684
0.120135901525
0.111055351067
0.107385023859
0.105770392404
0.104702643255
0.103738996969
0.102822884697
0.101894271763
0.100972221306
0.100053691297
0.09915926349
0.0982452103701
0.0973312775829
0.0964430473248
0.0955341938984
0.0946290924094
0.0937286304051
0.0928577801793
0.0919695402184
0.0910939715063
0.0902547103342
0.0894088863754
0.088582633648
0.0877808137561
0.0870343396594
0.0862924815244
0.0855884901684
0.0849258200659
0.0843084602902
0.0837670399846
0.083253823914
0.0827979156197
0.0824009531935
0.0820660066001
0.0817941554616
0.081588089381
0.0814485163201
0.0813458656475
7.23199832441e-54
7.23199832441e-54
7.23199832441e-54
7.23199832441e-54
7.23199832441e-54
7.23199832441e-54
7.23199832442e-54
7.23199832442e-54
7.23199832442e-54
7.23199832442e-54
7.23199832442e-54
7.23199832442e-54
7.23199832442e-54
7.23199832442e-54
7.23199832443e-54
7.23199832443e-54
7.23199832443e-54
7.23199832443e-54
7.23199832443e-54
7.23199832443e-54
7.23199832446e-54
7.23199832619e-54
7.23199843569e-54
7.23200530967e-54
7.23241227904e-54
7.25675292413e-54
7.60104281959e-54
0.000335137829747
0.231417136997
0.219881903308
0.173231597059
0.139168794189
0.121233070136
0.113352067457
0.110147638697
0.108624629594
0.107524144045
0.106520098391
0.105513623475
0.104518230687
0.103552026836
0.102570917497
0.101593987574
0.100642675365
0.0996757114978
0.0987116867222
0.0977521746184
0.0968215124821
0.0958761393919
0.0949385019866
0.0940360045172
0.0931233563015
0.0922252979749
0.0913731427636
0.0905163490765
0.0896870441332
0.0888893990686
0.0881509483174
0.0874261332807
0.0867434136682
0.0861080032923
0.0855244418383
0.085024516851
0.0845555858591
0.0841487210317
0.0838044946553
0.0835263001681
0.0833154027978
0.0831717819945
0.0830676744135
7.23199832437e-54
7.23199832437e-54
7.23199832437e-54
7.23199832438e-54
7.23199832438e-54
7.23199832438e-54
7.23199832438e-54
7.23199832438e-54
7.23199832438e-54
7.23199832438e-54
7.23199832438e-54
7.23199832438e-54
7.23199832439e-54
7.23199832439e-54
7.23199832439e-54
7.23199832439e-54
7.23199832439e-54
7.23199832439e-54
7.23199832439e-54
7.23199832439e-54
7.23199832445e-54
7.23199832774e-54
7.23199853052e-54
7.23201089986e-54
7.23272189879e-54
7.27327776993e-54
2.20498251298e-20
0.0155067893783
0.231670156246
0.213517569933
0.168758600408
0.138135823073
0.122751494901
0.115909482686
0.113054073589
0.111592124882
0.110465997796
0.109375911168
0.108300465335
0.10725732709
0.106202167387
0.105155023261
0.104139538675
0.1031091833
0.102084484786
0.101090854927
0.100082468133
0.0990811446811
0.0981143161531
0.0971351917241
0.0961668016307
0.0952416822546
0.0943086797622
0.093398615155
0.0925395138926
0.091683069549
0.0908590265345
0.0900727322947
0.0893531253654
0.0886510343944
0.0879999501496
0.0874022720297
0.0868603241523
0.0864064098657
0.0859888875314
0.0856371937118
0.0853521558665
0.0851350889546
0.0849873644784
0.0848826393648
7.23199832434e-54
7.23199832434e-54
7.23199832434e-54
7.23199832434e-54
7.23199832434e-54
7.23199832434e-54
7.23199832435e-54
7.23199832435e-54
7.23199832435e-54
7.23199832435e-54
7.23199832435e-54
7.23199832435e-54
7.23199832435e-54
7.23199832435e-54
7.23199832435e-54
7.23199832436e-54
7.23199832436e-54
7.23199832436e-54
7.23199832436e-54
7.23199832436e-54
7.23199832446e-54
7.23199833061e-54
7.23199871852e-54
7.23202318398e-54
7.23353476939e-54
7.29322027971e-54
3.52177108101e-19
0.0694897924236
0.23186071413
0.206751869296
0.164653655889
0.137538306051
0.12442790446
0.118664194762
0.116123554807
0.114685296658
0.113471016158
0.112308628291
0.11118123954
0.110050239712
0.108951101574
0.107840814186
0.106742295288
0.10567465303
0.104594783422
0.103526226783
0.102490359043
0.101443130055
0.100432684417
0.0994114059682
0.0984052067437
0.0974429895435
0.0964752722287
0.0955321208341
0.0946180094709
0.0937595124457
0.0929110155064
0.0921013717418
0.091361190181
0.0906419819552
0.089975467291
0.0893628153105
0.088807230175
0.088343277694
0.0879155842715
0.0875566259683
0.0872655959827
0.0870437947426
0.0868922228654
0.08678788872
7.23199832431e-54
7.23199832431e-54
7.23199832431e-54
7.23199832431e-54
7.23199832431e-54
7.23199832432e-54
7.23199832432e-54
7.23199832432e-54
7.23199832432e-54
7.23199832432e-54
7.23199832432e-54
7.23199832432e-54
7.23199832432e-54
7.23199832432e-54
7.23199832432e-54
7.23199832433e-54
7.23199832433e-54
7.23199832433e-54
7.23199832433e-54
7.23199832433e-54
7.23199832456e-54
7.23199833918e-54
7.23199926793e-54
7.23205550416e-54
7.23544677696e-54
7.32291745901e-54
9.03364061589e-19
0.163502344742
0.232039971576
0.19978449137
0.161036708892
0.137501999632
0.126470885504
0.121505791521
0.119260876779
0.117820196798
0.116540417792
0.115322969885
0.114107089949
0.112928752088
0.111743282079
0.110593449472
0.109434632569
0.108287464724
0.107176918438
0.106054414841
0.104969738208
0.103875811887
0.102796293807
0.101759162715
0.100713911604
0.0996907688051
0.0987165267792
0.097743267115
0.0967973543204
0.0959143611623
0.0950416694641
0.094207775107
0.0934208432552
0.0927109467813
0.092027279002
0.0914021588094
0.0908362352412
0.0903626692252
0.0899257826122
0.0895572615566
0.0892584931978
0.0890316439214
0.0888763413126
0.088771976744
7.23199832428e-54
7.23199832428e-54
7.23199832429e-54
7.23199832429e-54
7.23199832429e-54
7.23199832429e-54
7.23199832429e-54
7.23199832429e-54
7.23199832429e-54
7.23199832429e-54
7.23199832429e-54
7.2319983243e-54
7.2319983243e-54
7.2319983243e-54
7.2319983243e-54
7.2319983243e-54
7.2319983243e-54
7.2319983243e-54
7.2319983243e-54
7.23199832431e-54
7.23199832485e-54
7.23199835849e-54
7.23200042977e-54
7.23212207679e-54
7.23941940545e-54
7.38610851793e-54
3.30892716667e-11
0.229279021386
0.231981055008
0.192896231655
0.1579601866
0.138002158884
0.128708946052
0.124551127162
0.122477778633
0.121011060626
0.119681529852
0.118371030125
0.117104087644
0.115835944513
0.114606494094
0.113372872757
0.112180182247
0.110976812189
0.109814235649
0.108641304333
0.10748678093
0.106370121365
0.105247566501
0.104169198418
0.103087381521
0.102026526673
0.101020455093
0.100016348167
0.0990467203656
0.0981386199602
0.0972411820568
0.0963871652
0.0955816520938
0.0948572223145
0.0941587591347
0.0935179186786
0.0929401066783
0.0924566071294
0.0920115262003
0.091637052878
0.091333353732
0.0911013061461
0.0909420870417
0.0908360431529
7.23199832426e-54
7.23199832426e-54
7.23199832426e-54
7.23199832426e-54
7.23199832426e-54
7.23199832427e-54
7.23199832427e-54
7.23199832427e-54
7.23199832427e-54
7.23199832427e-54
7.23199832427e-54
7.23199832427e-54
7.23199832427e-54
7.23199832427e-54
7.23199832427e-54
7.23199832427e-54
7.23199832428e-54
7.23199832428e-54
7.23199832428e-54
7.2319983243e-54
7.23199832559e-54
7.23199840564e-54
7.23200335775e-54
7.23229426961e-54
7.24961738761e-54
7.5249859809e-54
4.99194790275e-06
0.23110241672
0.227272424408
0.186171810952
0.155443151452
0.138799377886
0.131150810586
0.127640419064
0.125732289183
0.124249244419
0.122832750938
0.121470947473
0.120113946643
0.118802249785
0.117491826033
0.116220852395
0.114944956931
0.113711792461
0.112472394298
0.111274894679
0.110073459591
0.10891567602
0.107751008775
0.10663591077
0.105518548894
0.104425918741
0.103386639014
0.102354116139
0.101356616508
0.100423689285
0.0995060635633
0.0986320682899
0.0978380646032
0.0970687597275
0.0963570572103
0.0957061582104
0.0951183989678
0.0946259315162
0.0941726890058
0.0937903444769
0.0934804341092
0.0932442214352
0.0930803617539
0.0929747690419
7.23199832424e-54
7.23199832424e-54
7.23199832424e-54
7.23199832424e-54
7.23199832424e-54
7.23199832424e-54
7.23199832424e-54
7.23199832425e-54
7.23199832425e-54
7.23199832425e-54
7.23199832425e-54
7.23199832425e-54
7.23199832425e-54
7.23199832425e-54
7.23199832425e-54
7.23199832425e-54
7.23199832425e-54
7.23199832425e-54
7.23199832426e-54
7.23199832431e-54
7.23199832758e-54
7.23199852777e-54
7.23201065394e-54
7.23270417473e-54
7.2719740484e-54
7.77702804405e-54
0.00891605475455
0.231571433727
0.21934752375
0.18039173397
0.153699497275
0.140102910596
0.133813954591
0.13083823176
0.129029872622
0.127483187785
0.126019636525
0.124570457304
0.123169426943
0.121794003278
0.120420215328
0.119091788946
0.117763940475
0.116478399399
0.115190037463
0.113946315668
0.112698409323
0.111499227495
0.110298893817
0.109146998931
0.107995730899
0.106870060397
0.10580429459
0.104745459059
0.103723531366
0.10276804319
0.101829649116
0.10093852801
0.100128157773
0.0993444424554
0.0986201780654
0.0979583579548
0.0973921435048
0.0968624955706
0.096402150429
0.0960143124948
0.0956981667045
0.0954556212095
0.0953189313266
0.0952127061407
7.23199832422e-54
7.23199832422e-54
7.23199832422e-54
7.23199832422e-54
7.23199832422e-54
7.23199832422e-54
7.23199832423e-54
7.23199832423e-54
7.23199832423e-54
7.23199832423e-54
7.23199832423e-54
7.23199832423e-54
7.23199832423e-54
7.23199832423e-54
7.23199832423e-54
7.23199832423e-54
7.23199832423e-54
7.23199832423e-54
7.23199832424e-54
7.23199832437e-54
7.2319983328e-54
7.23199886342e-54
7.23203189128e-54
7.2340495242e-54
7.30441213995e-54
4.76090749651e-19
0.08533406474
0.231845837048
0.210783155273
0.175025639761
0.152831182125
0.141824219099
0.136655355609
0.134091974941
0.132326732443
0.130742030096
0.129210715059
0.12769423407
0.126227356827
0.124771758479
0.123361197299
0.121980140357
0.120597267185
0.119264472129
0.117930694779
0.11664431658
0.115356415671
0.114118024865
0.11288067128
0.111693670324
0.110510231694
0.109358289197
0.108264866143
0.107181864911
0.106165998045
0.105164376322
0.104207651635
0.103329728469
0.102476491135
0.101679952105
0.100944132493
0.100302910964
0.0996961096886
0.099158562905
0.0986922434782
0.0982969731247
0.0980094038334
0.097761260928
0.0975895751938
0.0974822020802
7.2319983242e-54
7.2319983242e-54
7.2319983242e-54
7.2319983242e-54
7.23199832421e-54
7.23199832421e-54
7.23199832421e-54
7.23199832421e-54
7.23199832421e-54
7.23199832421e-54
7.23199832421e-54
7.23199832421e-54
7.23199832421e-54
7.23199832421e-54
7.23199832421e-54
7.23199832421e-54
7.23199832422e-54
7.23199832422e-54
7.23199832422e-54
7.23199832468e-54
7.23199835263e-54
7.2320000658e-54
7.2320999294e-54
7.2379292551e-54
7.36300332757e-54
1.50482981301e-18
0.220287267628
0.232081313977
0.202269357304
0.170917435502
0.152700577444
0.143851207394
0.139694560464
0.137379814541
0.135623231918
0.133980992326
0.132367622762
0.130809676341
0.129283154672
0.127770223216
0.126305089466
0.124869343176
0.123439501129
0.12206181731
0.120684714525
0.119358433012
0.118030926305
0.116759779945
0.115485831543
0.114270119897
0.11305752412
0.111905047668
0.110761651086
0.109656015809
0.108619535406
0.107599950691
0.106628607762
0.105739653851
0.104874086241
0.10406659323
0.103351621685
0.102672103512
0.102059084525
0.101514675295
0.101074966811
0.100674780676
0.100348938838
0.100097857056
0.0999213245751
0.0998118553074
7.23199832418e-54
7.23199832419e-54
7.23199832419e-54
7.23199832419e-54
7.23199832419e-54
7.23199832419e-54
7.23199832419e-54
7.23199832419e-54
7.23199832419e-54
7.23199832419e-54
7.23199832419e-54
7.23199832419e-54
7.2319983242e-54
7.2319983242e-54
7.2319983242e-54