/*--------------------------------*- C++ -*----------------------------------*\
| =========                 |                                                 |
| \\      /  F ield         | foam-extend: Open Source CFD                    |
|  \\    /   O peration     | Version:     4.1                                |
|   \\  /    A nd           | Web:         http://www.foam-extend.org         |
|    \\/     M anipulation  |                                                 |
\*---------------------------------------------------------------------------*/
FoamFile
{
    version     2.0;
    format      ascii;
    class       volScalarField;
    location    "0.0003";
    object      O2;
}
// * * * * * * * * * * * * * * * * * * * * * * * * * * * * * * * * * * * * * //

dimensions      [0 0 0 0 0 0 0];

internalField   nonuniform List<scalar> 
8400
(
0.232918
0.232918
0.232918
0.232918
0.232918
0.232918
0.232918
0.232918
0.232918
0.232918
0.232918
0.232918
0.232918
0.232918
0.232918
0.232918
0.232918
0.232918
0.232918
0.232918
0.232918
0.232918
0.232918
0.232918
0.232918
0.232918
0.232918
0.232918
0.232918
0.232918
0.232767655897
5.25525420015e-05
3.60842411244e-07
9.83161476857e-08
5.6655778533e-08
4.3109227521e-08
3.91165668782e-08
3.75550174744e-08
3.68044766826e-08
3.62987085866e-08
3.58472108997e-08
3.54059741639e-08
3.49652032871e-08
3.4521354515e-08
3.40737270649e-08
3.3618092821e-08
3.31772382301e-08
3.26997826703e-08
3.22107322111e-08
3.170824492e-08
3.11920773524e-08
3.06643815499e-08
3.01490940238e-08
2.96019741445e-08
2.90486336706e-08
2.84918850547e-08
2.79385101068e-08
2.73916158198e-08
2.68786053986e-08
2.63614955005e-08
2.58657242888e-08
2.54011082869e-08
2.49709171313e-08
2.45804623025e-08
2.42344370831e-08
2.39413782531e-08
2.37013480314e-08
2.35409282124e-08
2.34181531155e-08
2.3306312202e-08
0.232918
0.232918
0.232918
0.232918
0.232918
0.232918
0.232918
0.232918
0.232918
0.232918
0.232918
0.232918
0.232918
0.232918
0.232918
0.232918
0.232918
0.232918
0.232918
0.232918
0.232918
0.232918
0.232918
0.232918
0.232918
0.232918
0.232918
0.232918
0.232918
0.232917818159
0.150210973813
9.97978856753e-06
1.5966558652e-07
7.18368623918e-08
4.7000703963e-08
3.90838107665e-08
3.65792275129e-08
3.57008875855e-08
3.52716584783e-08
3.49394080893e-08
3.46011985258e-08
3.42481488262e-08
3.38805676258e-08
3.34931679156e-08
3.3086030933e-08
3.26615380879e-08
3.22181781529e-08
3.1755067251e-08
3.12736653638e-08
3.0776939421e-08
3.0263870764e-08
2.97402608993e-08
2.92064950792e-08
2.86637044829e-08
2.81409661676e-08
2.75952586555e-08
2.70560437164e-08
2.65262148396e-08
2.60125079797e-08
2.5519734008e-08
2.5051454062e-08
2.46135022142e-08
2.42116579818e-08
2.38702674723e-08
2.35533966027e-08
2.32836867473e-08
2.30652246662e-08
2.2898852108e-08
2.27867002473e-08
2.27098783136e-08
0.232918
0.232918
0.232918
0.232918
0.232918
0.232918
0.232918
0.232918
0.232918
0.232918
0.232918
0.232918
0.232918
0.232918
0.232918
0.232918
0.232918
0.232918
0.232918
0.232918
0.232918
0.232918
0.232918
0.232918
0.232918
0.232918
0.232918
0.232918
0.232918
0.232912141125
0.000140927129967
6.14557945299e-07
1.05594575306e-07
5.72101900601e-08
4.18484868172e-08
3.71038825741e-08
3.55806621259e-08
3.50053843845e-08
3.4646352287e-08
3.43434508989e-08
3.40315027798e-08
3.36984607325e-08
3.33442120345e-08
3.29690194732e-08
3.25724581142e-08
3.21555422264e-08
3.17169664288e-08
3.12588559609e-08
3.07827923777e-08
3.02889041181e-08
2.97824741045e-08
2.92645562832e-08
2.87362943949e-08
2.82042223638e-08
2.76699190992e-08
2.71616445856e-08
2.66383951418e-08
2.61282944597e-08
2.56362074704e-08
2.51654859769e-08
2.47211171559e-08
2.43088632875e-08
2.39324451086e-08
2.35938623495e-08
2.33182172788e-08
2.30679399376e-08
2.28647078983e-08
2.27125135569e-08
2.2610477438e-08
2.25418891531e-08
0.232918
0.232918
0.232918
0.232918
0.232918
0.232918
0.232918
0.232918
0.232918
0.232918
0.232918
0.232918
0.232918
0.232918
0.232918
0.232918
0.232918
0.232918
0.232918
0.232918
0.232918
0.232918
0.232918
0.232918
0.232918
0.232918
0.232918
0.232918
0.232918
0.226322899275
2.31877091943e-05
2.27928216314e-07
8.33278791288e-08
5.03720838957e-08
3.98408509458e-08
3.65572467535e-08
3.55047433356e-08
3.50243131306e-08
3.47022555276e-08
3.43852651233e-08
3.40530594758e-08
3.36991999144e-08
3.33237342793e-08
3.29275706043e-08
3.25107206509e-08
3.20744013103e-08
3.16175211012e-08
3.11432645049e-08
3.06524438068e-08
3.01460621813e-08
2.9628988142e-08
2.91024627148e-08
2.85680700061e-08
2.80555367101e-08
2.75204560979e-08
2.69928919262e-08
2.64741530225e-08
2.5971412853e-08
2.54881088086e-08
2.50275456679e-08
2.45948596204e-08
2.42149051407e-08
2.38508437039e-08
2.35256633687e-08
2.32412330105e-08
2.30015468791e-08
2.28072329913e-08
2.26615590975e-08
2.25643363948e-08
2.25003060348e-08
0.232918
0.232918
0.232918
0.232918
0.232918
0.232918
0.232918
0.232918
0.232918
0.232918
0.232918
0.232918
0.232918
0.232918
0.232918
0.232918
0.232918
0.232918
0.232918
0.232918
0.232918
0.232918
0.232918
0.232918
0.232918
0.232918
0.232918
0.232918
0.232917819745
0.15055916314
9.97070977354e-06
1.59701487741e-07
7.19692523552e-08
4.72132694402e-08
3.93819637503e-08
3.69498067724e-08
3.60481493807e-08
3.5595829952e-08
3.5239033834e-08
3.48814371213e-08
3.45078113547e-08
3.41147460157e-08
3.37023776682e-08
3.32693927184e-08
3.28173070879e-08
3.23469630989e-08
3.18587730015e-08
3.13533062915e-08
3.0835526882e-08
3.03041865526e-08
2.97639267949e-08
2.92393476319e-08
2.86884299062e-08
2.81389444984e-08
2.7592789959e-08
2.70552760897e-08
2.6530637702e-08
2.60227339255e-08
2.5536673245e-08
2.5096379394e-08
2.4664946784e-08
2.42663508495e-08
2.39047762623e-08
2.35823961158e-08
2.33027663213e-08
2.30662282394e-08
2.28757406259e-08
2.2731579352e-08
2.2634657688e-08
2.25723847653e-08
0.232918
0.232918
0.232918
0.232918
0.232918
0.232918
0.232918
0.232918
0.232918
0.232918
0.232918
0.232918
0.232918
0.232918
0.232918
0.232918
0.232918
0.232918
0.232918
0.232918
0.232918
0.232918
0.232918
0.232918
0.232918
0.232918
0.232918
0.232918
0.232917441487
0.0381022019257
4.3439491984e-06
1.29738522367e-07
6.54204273272e-08
4.58573311381e-08
3.97724664905e-08
3.78468809311e-08
3.70583553891e-08
3.65793278964e-08
3.61577598061e-08
3.57379250763e-08
3.5307331708e-08
3.48626676985e-08
3.43997961348e-08
3.39199617388e-08
3.34227635751e-08
3.2907875965e-08
3.23789696218e-08
3.18370463264e-08
3.12811703129e-08
3.074072668e-08
3.01679617831e-08
2.95924372303e-08
2.90158055681e-08
2.84429167409e-08
2.7877656784e-08
2.73218428549e-08
2.68036094178e-08
2.62835157435e-08
2.57860077516e-08
2.53161925306e-08
2.48781748325e-08
2.44742520509e-08
2.41076241225e-08
2.37823696358e-08
2.34995399423e-08
2.32832295197e-08
2.30908044378e-08
2.29456973091e-08
2.28489625456e-08
2.2786179982e-08
0.232918
0.232918
0.232918
0.232918
0.232918
0.232918
0.232918
0.232918
0.232918
0.232918
0.232918
0.232918
0.232918
0.232918
0.232918
0.232918
0.232918
0.232918
0.232918
0.232918
0.232918
0.232918
0.232918
0.232918
0.232918
0.232918
0.232918
0.232918
0.232914502004
0.000254293474112
8.86420212519e-07
1.13201696405e-07
6.16594697475e-08
4.5607391821e-08
4.07551495357e-08
3.91195894114e-08
3.83791442772e-08
3.78458053672e-08
3.73673376858e-08
3.68854134782e-08
3.63921623549e-08
3.58842380536e-08
3.53643347514e-08
3.48302766527e-08
3.4280043096e-08
3.37163097016e-08
3.31391005971e-08
3.25750205074e-08
3.19769443935e-08
3.13714993033e-08
3.07630777103e-08
3.01525606249e-08
2.95441555612e-08
2.89412419222e-08
2.83713922337e-08
2.77917426672e-08
2.72299709309e-08
2.66902779865e-08
2.6177219207e-08
2.5692947369e-08
2.52411912629e-08
2.48487246111e-08
2.44730362317e-08
2.41399787107e-08
2.38510760952e-08
2.36090943206e-08
2.3413530478e-08
2.32657488502e-08
2.31666761276e-08
2.31030349906e-08
0.232918
0.232918
0.232918
0.232918
0.232918
0.232918
0.232918
0.232918
0.232918
0.232918
0.232918
0.232918
0.232918
0.232918
0.232918
0.232918
0.232918
0.232918
0.232918
0.232918
0.232918
0.232918
0.232918
0.232918
0.232918
0.232918
0.232918
0.232918
0.232832366272
6.38782321869e-05
4.15037938365e-07
1.02352678343e-07
5.95783638859e-08
4.60571932806e-08
4.21451155182e-08
4.0714858028e-08
3.99761101883e-08
3.9393420767e-08
3.88490788699e-08
3.82970488302e-08
3.77342732283e-08
3.71587170843e-08
3.65730425982e-08
3.59741572351e-08
3.53904831651e-08
3.47689928144e-08
3.41375826918e-08
3.34985877219e-08
3.28514738251e-08
3.22006823553e-08
3.15471454081e-08
3.08962082174e-08
3.02742052603e-08
2.96352072759e-08
2.90110162087e-08
2.84031585885e-08
2.78142308019e-08
2.72512399455e-08
2.67151745929e-08
2.62353243565e-08
2.57666191866e-08
2.53381801219e-08
2.49512331987e-08
2.46073003342e-08
2.43091306038e-08
2.40582619982e-08
2.38572699135e-08
2.37051202066e-08
2.36028808709e-08
2.35388353503e-08
0.232918
0.232918
0.232918
0.232918
0.232918
0.232918
0.232918
0.232918
0.232918
0.232918
0.232918
0.232918
0.232918
0.232918
0.232918
0.232918
0.232918
0.232918
0.232918
0.232918
0.232918
0.232918
0.232918
0.232918
0.232918
0.232918
0.232918
0.232918
0.2315864283
3.34529507406e-05
2.8982776279e-07
9.53198195261e-08
5.86515856607e-08
4.72597879061e-08
4.39450622717e-08
4.25804195423e-08
4.1833416281e-08
4.12111381305e-08
4.05941382258e-08
3.99644927262e-08
3.93238166283e-08
3.86719755677e-08
3.80399853024e-08
3.73697325792e-08
3.66926360568e-08
3.60057348986e-08
3.53140622324e-08
3.46157841943e-08
3.39136582075e-08
3.32115654312e-08
3.25329515834e-08
3.18362904318e-08
3.11457124037e-08
3.04696384354e-08
2.98084221805e-08
2.91654328675e-08
2.85693953086e-08
2.79780048364e-08
2.74171609708e-08
2.68909813616e-08
2.64037425193e-08
2.5957187103e-08
2.55531714385e-08
2.52188531105e-08
2.49090849735e-08
2.46493673225e-08
2.44391484388e-08
2.42820387074e-08
2.4175967439e-08
2.4109405929e-08
0.232918
0.232918
0.232918
0.232918
0.232918
0.232918
0.232918
0.232918
0.232918
0.232918
0.232918
0.232918
0.232918
0.232918
0.232918
0.232918
0.232918
0.232918
0.232918
0.232918
0.232918
0.232918
0.232918
0.232918
0.232918
0.232918
0.232918
0.232918
0.221047900739
2.12396937408e-05
2.3149204766e-07
9.04913687541e-08
5.88269538253e-08
4.89406166301e-08
4.6003140079e-08
4.48570859122e-08
4.40234925296e-08
4.33122754705e-08
4.26047555687e-08
4.1887009705e-08
4.11587889702e-08
4.04502690899e-08
3.97078386354e-08
3.89591533922e-08
3.82066981617e-08
3.74469867678e-08
3.66856526715e-08
3.59198315417e-08
3.51829633702e-08
3.44212983485e-08
3.36641383816e-08
3.29146658612e-08
3.21774897178e-08
3.14560124989e-08
3.07768774076e-08
3.00950256341e-08
2.94415866028e-08
2.88175047135e-08
2.82275536163e-08
2.76762215437e-08
2.71872689341e-08
2.67198858599e-08
2.62986360309e-08
2.59255081401e-08
2.56027715213e-08
2.53324549077e-08
2.51147733536e-08
2.49507001865e-08
2.48397154122e-08
2.47706222302e-08
0.232918
0.232918
0.232918
0.232918
0.232918
0.232918
0.232918
0.232918
0.232918
0.232918
0.232918
0.232918
0.232918
0.232918
0.232918
0.232918
0.232918
0.232918
0.232918
0.232918
0.232918
0.232918
0.232918
0.232918
0.232918
0.232918
0.232918
0.232917933408
0.190054272782
1.42876542693e-05
1.97271813123e-07
8.66597721084e-08
5.94589594198e-08
5.12175018225e-08
4.86789588136e-08
4.74752545521e-08
4.65328478062e-08
4.57093464533e-08
4.48902620783e-08
4.40967162826e-08
4.32710071657e-08
4.24393009238e-08
4.16063168831e-08
4.07694705574e-08
3.9930522215e-08
3.9089380456e-08
3.8277498121e-08
3.74386013571e-08
3.66063376178e-08
3.57783403202e-08
3.49594380642e-08
3.41790027281e-08
3.33868680341e-08
3.26153568879e-08
3.18644939531e-08
3.11410221638e-08
3.04483193536e-08
2.98125079417e-08
2.9190207127e-08
2.86078172734e-08
2.80708033651e-08
2.75800166557e-08
2.71372207216e-08
2.67713488304e-08
2.64324328227e-08
2.61494824583e-08
2.59211047682e-08
2.57491883854e-08
2.56327325944e-08
2.55607819657e-08
0.232918
0.232918
0.232918
0.232918
0.232918
0.232918
0.232918
0.232918
0.232918
0.232918
0.232918
0.232918
0.232918
0.232918
0.232918
0.232918
0.232918
0.232918
0.232918
0.232918
0.232918
0.232918
0.232918
0.232918
0.232918
0.232918
0.232918
0.232917785527
0.141262260009
9.94180575115e-06
1.73633311203e-07
8.43067225508e-08
6.06262623215e-08
5.39565232506e-08
5.16631732164e-08
5.04169410007e-08
4.94092250611e-08
4.84162076727e-08
4.74963422031e-08
4.65553644753e-08
4.56137321314e-08
4.46736604873e-08
4.37346675813e-08
4.27990405164e-08
4.18928081696e-08
4.09616638641e-08
4.00356979234e-08
3.91175679575e-08
3.82062157914e-08
3.73337043536e-08
3.64447625184e-08
3.55749858175e-08
3.4723402006e-08
3.38957740801e-08
3.31201906647e-08
3.23488621111e-08
3.16113328046e-08
3.09124901659e-08
3.02524482893e-08
2.96635080582e-08
2.90966108108e-08
2.85787697408e-08
2.8113797172e-08
2.77033901659e-08
2.73489546056e-08
2.70519908048e-08
2.68123754125e-08
2.6631076191e-08
2.65082867778e-08
2.64333729487e-08
0.232918
0.232918
0.232918
0.232918
0.232918
0.232918
0.232918
0.232918
0.232918
0.232918
0.232918
0.232918
0.232918
0.232918
0.232918
0.232918
0.232918
0.232918
0.232918
0.232918
0.232918
0.232918
0.232918
0.232918
0.232918
0.232918
0.232918
0.232917566358
0.07622218045
6.54683026346e-06
1.56720802173e-07
8.30072529953e-08
6.25743772652e-08
5.70728908383e-08
5.50731913452e-08
5.37524928584e-08
5.26044808673e-08
5.14830989053e-08
5.03843601696e-08
4.92976375659e-08
4.82251910864e-08
4.71601921638e-08
4.61322224698e-08
4.50830528931e-08
4.40418143803e-08
4.3010939994e-08
4.19896466993e-08
4.10084976696e-08
4.00113277586e-08
3.90321320582e-08
3.80678695662e-08
3.71286583649e-08
3.62386966837e-08
3.53474332151e-08
3.44905307157e-08
3.3666524735e-08
3.29073664352e-08
3.21637455405e-08
3.1464054375e-08
3.08142988937e-08
3.02151485986e-08
2.96678679183e-08
2.92029228027e-08
2.87706630037e-08
2.83974622663e-08
2.80840945081e-08
2.78315617072e-08
2.76401464657e-08
2.75098168152e-08
2.74309444943e-08
0.232918
0.232918
0.232918
0.232918
0.232918
0.232918
0.232918
0.232918
0.232918
0.232918
0.232918
0.232918
0.232918
0.232918
0.232918
0.232918
0.232918
0.232918
0.232918
0.232918
0.232918
0.232918
0.232918
0.232918
0.232918
0.232918
0.232918
0.232917231171
0.00873566883695
3.68929267282e-06
1.43605649453e-07
8.26339039042e-08
6.51259138204e-08
6.06197576837e-08
5.88628247734e-08
5.74458503834e-08
5.61345560676e-08
5.48382811841e-08
5.35730216497e-08
5.23311450037e-08
5.11084610348e-08
4.99339789972e-08
4.8745357384e-08
4.75703623908e-08
4.64117518085e-08
4.5297028496e-08
4.41671908781e-08
4.30595227418e-08
4.19678461108e-08
4.09289024311e-08
3.9884085525e-08
3.88642249977e-08
3.78763414355e-08
3.69180901315e-08
3.60268963656e-08
3.5144957569e-08
3.43076413946e-08
3.35145360304e-08
3.27993922378e-08
3.21097756747e-08
3.14744388396e-08
3.08959317891e-08
3.03783695003e-08
2.99222974348e-08
2.95289290125e-08
2.9222378214e-08
2.89567196866e-08
2.87545712694e-08
2.86169092039e-08
2.8535095647e-08
0.232918
0.232918
0.232918
0.232918
0.232918
0.232918
0.232918
0.232918
0.232918
0.232918
0.232918
0.232918
0.232918
0.232918
0.232918
0.232918
0.232918
0.232918
0.232918
0.232918
0.232918
0.232918
0.232918
0.232918
0.232918
0.232918
0.232918
0.232913429993
0.00021059426104
1.1165340755e-06
1.3380541524e-07
8.25365874322e-08
6.85502591756e-08
6.47918914133e-08
6.30660910988e-08
6.15243079959e-08
6.00110630233e-08
5.85270790167e-08
5.70766559294e-08
5.56926320738e-08
5.43023443359e-08
5.29415611205e-08
5.16037013337e-08
5.03210740747e-08
4.9030340222e-08
4.77612799779e-08
4.65175188353e-08
4.53274142138e-08
4.41344778979e-08
4.29675838907e-08
4.18332130476e-08
4.07598831096e-08
3.9690273118e-08
3.8662399302e-08
3.76729523533e-08
3.67598917434e-08
3.58655984667e-08
3.50197492408e-08
3.42301952531e-08
3.34975386975e-08
3.28508812278e-08
3.22391169263e-08
3.16897001525e-08
3.12070904954e-08
3.07911337356e-08
3.04415946116e-08
3.0160489888e-08
2.99462500287e-08
2.98268107652e-08
2.97397716266e-08
0.232918
0.232918
0.232918
0.232918
0.232918
0.232918
0.232918
0.232918
0.232918
0.232918
0.232918
0.232918
0.232918
0.232918
0.232918
0.232918
0.232918
0.232918
0.232918
0.232918
0.232918
0.232918
0.232918
0.232918
0.232918
0.232918
0.232918
0.232807317932
6.37509053874e-05
5.01163608029e-07
1.25838665753e-07
8.35844014987e-08
7.22182102556e-08
6.93559109867e-08
6.77353761347e-08
6.60082810222e-08
6.42653505512e-08
6.25563377888e-08
6.0932383932e-08
5.93185146517e-08
5.77455713819e-08
5.62094866518e-08
5.47421179862e-08
5.3275019119e-08
5.18386388078e-08
5.04676960264e-08
4.90940221857e-08
4.77543535729e-08
4.64490487082e-08
4.52091178724e-08
4.39739317497e-08
4.2779803306e-08
4.16572177057e-08
4.05491355617e-08
3.94886506827e-08
3.84777125413e-08
3.75517522736e-08
3.66507733502e-08
3.58096382728e-08
3.50302140459e-08
3.43154738247e-08
3.3693837104e-08
3.31136126036e-08
3.26031160665e-08
3.21624382097e-08
3.17922142516e-08
3.14939043734e-08
3.12662554564e-08
3.11100980781e-08
3.1018533781e-08
0.232918
0.232918
0.232918
0.232918
0.232918
0.232918
0.232918
0.232918
0.232918
0.232918
0.232918
0.232918
0.232918
0.232918
0.232918
0.232918
0.232918
0.232918
0.232918
0.232918
0.232918
0.232918
0.232918
0.232918
0.232918
0.232918
0.232918
0.230662610431
3.28731114696e-05
3.38246684098e-07
1.20372639539e-07
8.57599145167e-08
7.67615712273e-08
7.44986419451e-08
7.2800374075e-08
7.08467816306e-08
6.88694827519e-08
6.69664054697e-08
6.50799908074e-08
6.32513365493e-08
6.15090879703e-08
5.97828842128e-08
5.81008641262e-08
5.64970623282e-08
5.4904247846e-08
5.33502592366e-08
5.18383046203e-08
5.04004197573e-08
4.89732554537e-08
4.75873308772e-08
4.6279041909e-08
4.49855874977e-08
4.37400415669e-08
4.25791651261e-08
4.14394277493e-08
4.03574318775e-08
3.9336422565e-08
3.84048497209e-08
3.75106830315e-08
3.66818737483e-08
3.59221074328e-08
3.52341735223e-08
3.46488096242e-08
3.41073121323e-08
3.36399559286e-08
3.32478592326e-08
3.29307257096e-08
3.26903795846e-08
3.25242925701e-08
3.24259634291e-08
0.232918
0.232918
0.232918
0.232918
0.232918
0.232918
0.232918
0.232918
0.232918
0.232918
0.232918
0.232918
0.232918
0.232918
0.232918
0.232918
0.232918
0.232918
0.232918
0.232918
0.232918
0.232918
0.232918
0.232918
0.232918
0.232918
0.232917987224
0.208925188819
1.92248801378e-05
2.62805718802e-07
1.16817085574e-07
8.86843352425e-08
8.22762315852e-08
8.03155270171e-08
7.83359486049e-08
7.61048737077e-08
7.38909439854e-08
7.16902294636e-08
6.95540703211e-08
6.75241843725e-08
6.5523836843e-08
6.35835330918e-08
6.17405959858e-08
5.99206190617e-08
5.81525547147e-08
5.64731628195e-08
5.48110481206e-08
5.3197562707e-08
5.16717784374e-08
5.01654513078e-08
4.87092385255e-08
4.73443978124e-08
4.60015288761e-08
4.47183011179e-08
4.35283440169e-08
4.23701174065e-08
4.12759770374e-08
4.02530359378e-08
3.93307216272e-08
3.84486564629e-08
3.76426490501e-08
3.69134600163e-08
3.62613343155e-08
3.57179640296e-08
3.52240996945e-08
3.48086987786e-08
3.44734217359e-08
3.42162004784e-08
3.40395103532e-08
3.39351348949e-08
0.232918
0.232918
0.232918
0.232918
0.232918
0.232918
0.232918
0.232918
0.232918
0.232918
0.232918
0.232918
0.232918
0.232918
0.232918
0.232918
0.232918
0.232918
0.232918
0.232918
0.232918
0.232918
0.232918
0.232918
0.232918
0.232918
0.232917793779
0.149953741948
1.19011526727e-05
2.18443648951e-07
1.14850597384e-07
9.26053624834e-08
8.83286226022e-08
8.6751174425e-08
8.44344088153e-08
8.18477921009e-08
7.92542560535e-08
7.67516302964e-08
7.43731608096e-08
7.20488821614e-08
6.98444034123e-08
6.76777478361e-08
6.55877821009e-08
6.36040486365e-08
6.16508037291e-08
5.97625203908e-08
5.7972822703e-08
5.62103638793e-08
5.4543924872e-08
5.29058228802e-08
5.13287278738e-08
4.98516020388e-08
4.84046500759e-08
4.70241924871e-08
4.57147467303e-08
4.45081859092e-08
4.33411557674e-08
4.22499655206e-08
4.12669598142e-08
4.03304084605e-08
3.94759901689e-08
3.8702448395e-08
3.80107634562e-08
3.74349375727e-08
3.69117258941e-08
3.64730892702e-08
3.61173369656e-08
3.5845695959e-08
3.56566940363e-08
3.55450545179e-08
0.232918
0.232918
0.232918
0.232918
0.232918
0.232918
0.232918
0.232918
0.232918
0.232918
0.232918
0.232918
0.232918
0.232918
0.232918
0.232918
0.232918
0.232918
0.232918
0.232918
0.232918
0.232918
0.232918
0.232918
0.232918
0.232918
0.232917462565
0.0557708399005
6.91860401611e-06
1.89823728623e-07
1.14568999749e-07
9.78686935651e-08
9.53672907788e-08
9.35928794145e-08
9.09257465831e-08
8.79395083065e-08
8.49869642465e-08
8.21906697913e-08
7.94716436941e-08
7.69041503677e-08
7.43980427017e-08
7.20267583322e-08
6.97055974932e-08
6.74689825698e-08
6.53561419761e-08
6.32803297744e-08
6.13206370807e-08
5.93965649598e-08
5.75448347126e-08
5.58046310553e-08
5.40977976956e-08
5.24673458044e-08
5.09470608065e-08
4.94659435845e-08
4.80598320429e-08
4.67709436849e-08
4.55275933362e-08
4.43630716054e-08
4.32850772229e-08
4.23250980847e-08
4.14181545992e-08
4.05993865576e-08
3.98682555257e-08
3.92587829095e-08
3.87044812889e-08
3.82384191914e-08
3.7859758844e-08
3.75714480767e-08
3.73691811155e-08
3.72495124006e-08
0.232918
0.232918
0.232918
0.232918
0.232918
0.232918
0.232918
0.232918
0.232918
0.232918
0.232918
0.232918
0.232918
0.232918
0.232918
0.232918
0.232918
0.232918
0.232918
0.232918
0.232918
0.232918
0.232918
0.232918
0.232918
0.232918
0.23291457091
0.00038543218409
2.68306430359e-06
1.7087628769e-07
1.15933246723e-07
1.04512045566e-07
1.0306684513e-07
1.0110694001e-07
9.78676969748e-08
9.44298661899e-08
9.11206073104e-08
8.79228932178e-08
8.49125961542e-08
8.19976285647e-08
7.9245913686e-08
7.65684757023e-08
7.40456691074e-08
7.15797993605e-08
6.92568639238e-08
6.69818215648e-08
6.48007456136e-08
6.27441129494e-08
6.07342590828e-08
5.88491104e-08
5.70101172027e-08
5.52514770324e-08
5.36178175091e-08
5.20298421056e-08
5.05305167428e-08
4.91539895746e-08
4.78281781418e-08
4.65901472122e-08
4.54464382051e-08
4.44302672804e-08
4.34689110409e-08
4.25996943005e-08
4.182631752e-08
4.11812175713e-08
4.05962607325e-08
4.01047903161e-08
3.97049347474e-08
3.93979916453e-08
3.91821767869e-08
3.90526030561e-08
0.232918
0.232918
0.232918
0.232918
0.232918
0.232918
0.232918
0.232918
0.232918
0.232918
0.232918
0.232918
0.232918
0.232918
0.232918
0.232918
0.232918
0.232918
0.232918
0.232918
0.232918
0.232918
0.232918
0.232918
0.232918
0.232918
0.232631621408
5.64239464512e-05
6.15251964993e-07
1.57971336919e-07
1.18894751431e-07
1.1204316326e-07
1.11417765897e-07
1.08947904499e-07
1.05187959149e-07
1.01319229595e-07
9.75470647605e-08
9.40054001658e-08
9.05914328721e-08
8.73893794526e-08
8.42954889502e-08
8.13806091044e-08
7.85496071816e-08
7.58860636914e-08
7.32952147303e-08
7.0854772502e-08
6.84791121053e-08
6.62467142669e-08
6.40692506219e-08
6.20329634375e-08
6.00532546664e-08
5.81683901807e-08
5.64140832467e-08
5.47177801532e-08
5.31174552935e-08
5.16497582076e-08
5.02406208559e-08
4.89277271648e-08
4.77513957443e-08
4.66368341527e-08
4.56203806636e-08
4.47034038602e-08
4.38863721604e-08
4.32048396597e-08
4.25861153494e-08
4.20649696957e-08
4.16421330951e-08
4.13162621466e-08
4.10847609225e-08
4.09454080919e-08
0.232918
0.232918
0.232918
0.232918
0.232918
0.232918
0.232918
0.232918
0.232918
0.232918
0.232918
0.232918
0.232918
0.232918
0.232918
0.232918
0.232918
0.232918
0.232918
0.232918
0.232918
0.232918
0.232918
0.232918
0.232918
0.232918
0.21694221413
2.37146688284e-05
3.49900303107e-07
1.51864579447e-07
1.24063406196e-07
1.21025956315e-07
1.20458291661e-07
1.17268773523e-07
1.12919428299e-07
1.08504137392e-07
1.04328661446e-07
1.00329052083e-07
9.65832095412e-08
9.30304886889e-08
8.96035880588e-08
8.63884823605e-08
8.32831595696e-08
8.03647765227e-08
7.75357349201e-08
7.48801397503e-08
7.23010277177e-08
6.98850557962e-08
6.75387783819e-08
6.53449189342e-08
6.32182379071e-08
6.11961135781e-08
5.9323642767e-08
5.75140482285e-08
5.58095575365e-08
5.42495092004e-08
5.27551598916e-08
5.13656974224e-08
5.01217012625e-08
4.89427477711e-08
4.78699422046e-08
4.69036310949e-08
4.60814990954e-08
4.53247335433e-08
4.46707889888e-08
4.41217152235e-08
4.36739752281e-08
4.332705738e-08
4.31170464771e-08
4.29664884733e-08
0.232918
0.232918
0.232918
0.232918
0.232918
0.232918
0.232918
0.232918
0.232918
0.232918
0.232918
0.232918
0.232918
0.232918
0.232918
0.232918
0.232918
0.232918
0.232918
0.232918
0.232918
0.232918
0.232918
0.232918
0.232918
0.232917719647
0.133539158842
1.22296422826e-05
2.6086470063e-07
1.48866258832e-07
1.31731128357e-07
1.31259547014e-07
1.30070648849e-07
1.25982369872e-07
1.20962233319e-07
1.16043590863e-07
1.11387186202e-07
1.0694565717e-07
1.02796281043e-07
9.88253720027e-08
9.5103632376e-08
9.15806301516e-08
8.81782905397e-08
8.49945391805e-08
8.19209953101e-08
7.90402997095e-08
7.62522112109e-08
7.36445981459e-08
7.11221580896e-08
6.87657199906e-08
6.64891595954e-08
6.43327592951e-08
6.2334028447e-08
6.04101754863e-08
5.86432959726e-08
5.69472293905e-08
5.53657281647e-08
5.3938694844e-08
5.25827350382e-08
5.1339853972e-08
5.02103062886e-08
4.9233663444e-08
4.83259602191e-08
4.75286693465e-08
4.68418408718e-08
4.62620267925e-08
4.58316093596e-08
4.54625272893e-08
4.51978689603e-08
4.50336624778e-08
0.232918
0.232918
0.232918
0.232918
0.232918
0.232918
0.232918
0.232918
0.232918
0.232918
0.232918
0.232918
0.232918
0.232918
0.232918
0.232918
0.232918
0.232918
0.232918
0.232918
0.232918
0.232918
0.232918
0.232918
0.232918
0.23291708776
0.00533633377216
5.63025289488e-06
2.18453137191e-07
1.50926083282e-07
1.41605617467e-07
1.42388801497e-07
1.40293712215e-07
1.35053308717e-07
1.29342186991e-07
1.23848113149e-07
1.18631993719e-07
1.13779290426e-07
1.09203670267e-07
1.04842722077e-07
1.00765593651e-07
9.69119364159e-08
9.32122420893e-08
8.97558867423e-08
8.6426155774e-08
8.33144507021e-08
8.03077983654e-08
7.75089005908e-08
7.47994437903e-08
7.22803899414e-08
6.98507302936e-08
6.75990631633e-08
6.54316284727e-08
6.33913896793e-08
6.15195294863e-08
5.97268250329e-08
5.80570370857e-08
5.65554644091e-08
5.51278291178e-08
5.38214447863e-08
5.26765659268e-08
5.16083917831e-08
5.06554259076e-08
4.98177571513e-08
4.91386617391e-08
4.85280875377e-08
4.80275686289e-08
4.76374898729e-08
4.73532763473e-08
4.71746624112e-08
0.232918
0.232918
0.232918
0.232918
0.232918
0.232918
0.232918
0.232918
0.232918
0.232918
0.232918
0.232918
0.232918
0.232918
0.232918
0.232918
0.232918
0.232918
0.232918
0.232918
0.232918
0.232918
0.232918
0.232918
0.232918
0.232754004862
6.69050434991e-05
1.00468521042e-06
1.9638373726e-07
1.55913707754e-07
1.53496510748e-07
1.54479226159e-07
1.50724319359e-07
1.44432598071e-07
1.37926902636e-07
1.31830416059e-07
1.26122562861e-07
1.20782498325e-07
1.15761786288e-07
1.10996563138e-07
1.0654979719e-07
1.02360191157e-07
9.83492864916e-08
9.46087915287e-08
9.10170349377e-08
8.76666435865e-08
8.44501619138e-08
8.14469496609e-08
7.85594147591e-08
7.58749650398e-08
7.32921891268e-08
7.09038935848e-08
6.86069748913e-08
6.6495248853e-08
6.44723530004e-08
6.25831762422e-08
6.08726143562e-08
5.92453021464e-08
5.77468000255e-08
5.64235695286e-08
5.5177246908e-08
5.40557112516e-08
5.30566861022e-08
5.22268804194e-08
5.14667382878e-08
5.08246775935e-08
5.02978357628e-08
4.98835643428e-08
4.95799703994e-08
4.94317013833e-08
0.232918
0.232918
0.232918
0.232918
0.232918
0.232918
0.232918
0.232918
0.232918
0.232918
0.232918
0.232918
0.232918
0.232918
0.232918
0.232918
0.232918
0.232918
0.232918
0.232918
0.232918
0.232918
0.232918
0.232918
0.23291794569
0.202111271818
2.15903608517e-05
3.98792672777e-07
1.87313534213e-07
1.6484445427e-07
1.66770022447e-07
1.66673427216e-07
1.61228552747e-07
1.53906308073e-07
1.46732767527e-07
1.40018111579e-07
1.33754813751e-07
1.27909595163e-07
1.22431913784e-07
1.17239945711e-07
1.12417613579e-07
1.0788562245e-07
1.03558419285e-07
9.95253996536e-08
9.57267360137e-08
9.20853414789e-08
8.86992067608e-08
8.54461575722e-08
8.24262879178e-08
7.95220073911e-08
7.68367015086e-08
7.42558953969e-08
7.18843387069e-08
6.96087625507e-08
6.74820662228e-08
6.55460643179e-08
6.37028532908e-08
6.20003380304e-08
6.04803291242e-08
5.90461475838e-08
5.77422497851e-08
5.6620898481e-08
5.55756486431e-08
5.46547296244e-08
5.38594713441e-08
5.31854591541e-08
5.26821392502e-08
5.22432486756e-08
5.19175104866e-08
5.17045257505e-08
0.232918
0.232918
0.232918
0.232918
0.232918
0.232918
0.232918
0.232918
0.232918
0.232918
0.232918
0.232918
0.232918
0.232918
0.232918
0.232918
0.232918
0.232918
0.232918
0.232918
0.232918
0.232918
0.232918
0.232918
0.232917424984
0.0623334652658
9.50732399121e-06
2.84534330844e-07
1.87226879902e-07
1.77890350921e-07
1.81423361325e-07
1.79252842076e-07
1.71872698168e-07
1.63577337137e-07
1.55669063911e-07
1.48312100378e-07
1.41465053752e-07
1.35090019181e-07
1.29145147093e-07
1.23530401784e-07
1.18319483412e-07
1.13435203041e-07
1.08841646937e-07
1.04469806434e-07
1.00409576743e-07
9.65265464971e-08
9.29195841214e-08
8.9521953417e-08
8.62688057343e-08
8.32547717232e-08
8.03621423654e-08
7.77026451313e-08
7.51552032553e-08
7.27670278971e-08
7.05899027211e-08
6.85116240331e-08
6.66367740542e-08
6.48544699612e-08
6.32170694952e-08
6.1718527766e-08
6.04124671362e-08
5.91891323221e-08
5.8102035679e-08
5.71433434008e-08
5.63642702425e-08
5.56578547527e-08
5.50734095809e-08
5.460815193e-08
5.42620453586e-08
5.40277245639e-08
0.232918
0.232918
0.232918
0.232918
0.232918
0.232918
0.232918
0.232918
0.232918
0.232918
0.232918
0.232918
0.232918
0.232918
0.232918
0.232918
0.232918
0.232918
0.232918
0.232918
0.232918
0.232918
0.232918
0.232918
0.232844880925
0.000106801921444
2.61399877953e-06
2.42130137195e-07
1.94270033571e-07
1.93882163305e-07
1.96899105507e-07
1.91660004235e-07
1.82559227507e-07
1.73269598294e-07
1.64617163091e-07
1.56601036394e-07
1.49172445483e-07
1.42273500625e-07
1.35849291441e-07
1.29862614664e-07
1.24206736164e-07
1.18969338576e-07
1.14063719154e-07
1.09404905798e-07
1.05080947009e-07
1.01020003291e-07
9.71418625373e-08
9.35500394435e-08
9.01110484837e-08
8.69398585782e-08
8.39029364911e-08
8.11083913127e-08
7.84405334678e-08
7.60003873514e-08
7.36679449117e-08
7.15584353881e-08
6.95460376775e-08
6.76932709328e-08
6.60435030722e-08
6.44901945504e-08
6.30760754819e-08