/*--------------------------------*- C++ -*----------------------------------*\
| =========                 |                                                 |
| \\      /  F ield         | foam-extend: Open Source CFD                    |
|  \\    /   O peration     | Version:     4.1                                |
|   \\  /    A nd           | Web:         http://www.foam-extend.org         |
|    \\/     M anipulation  |                                                 |
\*---------------------------------------------------------------------------*/
FoamFile
{
    version     2.0;
    format      ascii;
    class       volScalarField;
    location    "0.0003";
    object      O2Plus;
}
// * * * * * * * * * * * * * * * * * * * * * * * * * * * * * * * * * * * * * //

dimensions      [0 0 0 0 0 0 0];

internalField   nonuniform List<scalar> 
8400
(
2.93247974922e-108
2.93247974924e-108
2.93247974925e-108
2.93247974927e-108
2.93247974929e-108
2.9324797493e-108
2.93247974932e-108
2.93247974933e-108
2.93247974935e-108
2.93247974936e-108
2.93247974938e-108
2.93247974939e-108
2.93247974941e-108
2.93247974942e-108
2.93247974944e-108
2.93247974945e-108
2.93247974946e-108
2.93247974948e-108
2.93247974949e-108
2.9324797495e-108
2.93247974951e-108
2.93247974953e-108
2.93247974954e-108
2.93247974956e-108
2.93247975004e-108
2.93247977983e-108
2.93248166593e-108
2.93259447056e-108
2.93953372826e-108
3.04841665707e-108
3.86977278708e-22
2.26241537369e-08
1.73732014057e-07
2.16214256991e-07
2.24410814762e-07
2.27863529332e-07
2.33356117213e-07
2.35213972588e-07
2.34695198723e-07
2.33432999402e-07
2.31984497892e-07
2.30492346973e-07
2.28985989131e-07
2.27456040071e-07
2.25907543053e-07
2.24325962407e-07
2.22778008148e-07
2.2109981811e-07
2.19370098532e-07
2.17579820973e-07
2.15726339056e-07
2.13818154898e-07
2.11935706093e-07
2.09923323849e-07
2.07868437288e-07
2.05782015676e-07
2.03687104883e-07
2.01595138019e-07
1.99608474201e-07
1.9758660818e-07
1.95626914423e-07
1.93773802628e-07
1.92043666757e-07
1.90461609474e-07
1.89051556068e-07
1.87844413627e-07
1.86855036046e-07
1.8618639403e-07
1.8567928919e-07
1.8536563587e-07
2.93247974584e-108
2.93247974585e-108
2.93247974585e-108
2.93247974586e-108
2.93247974587e-108
2.93247974587e-108
2.93247974588e-108
2.93247974589e-108
2.93247974589e-108
2.9324797459e-108
2.9324797459e-108
2.93247974591e-108
2.93247974592e-108
2.93247974592e-108
2.93247974593e-108
2.93247974593e-108
2.93247974594e-108
2.93247974594e-108
2.93247974595e-108
2.93247974595e-108
2.93247974596e-108
2.93247974596e-108
2.93247974597e-108
2.93247974601e-108
2.93247974843e-108
2.93247990559e-108
2.93248998014e-108
2.93312409521e-108
2.95781243876e-108
7.08718587105e-43
2.88252365348e-12
8.55772986433e-08
1.99504776626e-07
2.20032049291e-07
2.22425261343e-07
2.26370348722e-07
2.30007682263e-07
2.31020595961e-07
2.30589484859e-07
2.29731300371e-07
2.28698005361e-07
2.27581794096e-07
2.26397270723e-07
2.25132366076e-07
2.23787758484e-07
2.22365963418e-07
2.20862028097e-07
2.19272524518e-07
2.17600366303e-07
2.15854330215e-07
2.14027835776e-07
2.12139920253e-07
2.10191686667e-07
2.08187028371e-07
2.06231080121e-07
2.04165766284e-07
2.02097134089e-07
2.00039010321e-07
1.98018416601e-07
1.9605756902e-07
1.94174083496e-07
1.92395120783e-07
1.90749309029e-07
1.89335270412e-07
1.88013364759e-07
1.86882968956e-07
1.8595796486e-07
1.85254532061e-07
1.84782551515e-07
1.84557475264e-07
2.93247974462e-108
2.93247974462e-108
2.93247974462e-108
2.93247974463e-108
2.93247974463e-108
2.93247974464e-108
2.93247974464e-108
2.93247974464e-108
2.93247974465e-108
2.93247974465e-108
2.93247974465e-108
2.93247974466e-108
2.93247974466e-108
2.93247974466e-108
2.93247974467e-108
2.93247974467e-108
2.93247974467e-108
2.93247974468e-108
2.93247974468e-108
2.93247974468e-108
2.93247974469e-108
2.93247974469e-108
2.9324797447e-108
2.93247974494e-108
2.93247976061e-108
2.93248077621e-108
2.93254336408e-108
2.93649584652e-108
3.00983248189e-108
9.63850704398e-29
1.05127618214e-08
1.60205968334e-07
2.11955588835e-07
2.20322804919e-07
2.22203365229e-07
2.26618679634e-07
2.29143052497e-07
2.29413057044e-07
2.28743124168e-07
2.27891660751e-07
2.26928615275e-07
2.25873772813e-07
2.24728420137e-07
2.23496616143e-07
2.22177770096e-07
2.20769373388e-07
2.19266966635e-07
2.1767808741e-07
2.16006196672e-07
2.14249634887e-07
2.12425583432e-07
2.10536171509e-07
2.08585699949e-07
2.06596684369e-07
2.04574926186e-07
2.02624512982e-07
2.00594688347e-07
1.98591016525e-07
1.96635399757e-07
1.94743513938e-07
1.9293824026e-07
1.91247905458e-07
1.89688541553e-07
1.88276670884e-07
1.87120330018e-07
1.86060331656e-07
1.85197879094e-07
1.8454573505e-07
1.84108532949e-07
1.83896067935e-07
2.93247974402e-108
2.93247974402e-108
2.93247974402e-108
2.93247974403e-108
2.93247974403e-108
2.93247974403e-108
2.93247974403e-108
2.93247974404e-108
2.93247974404e-108
2.93247974404e-108
2.93247974404e-108
2.93247974405e-108
2.93247974405e-108
2.93247974405e-108
2.93247974405e-108
2.93247974406e-108
2.93247974406e-108
2.93247974406e-108
2.93247974406e-108
2.93247974407e-108
2.93247974407e-108
2.93247974407e-108
2.93247974409e-108
2.93247974505e-108
2.9324798054e-108
2.93248358366e-108
2.93270648987e-108
2.94610029603e-108
3.12330592568e-108
2.64596324329e-16
4.4510139281e-08
1.87132254443e-07
2.17524574312e-07
2.21136189577e-07
2.2418983746e-07
2.28239162198e-07
2.29913571406e-07
2.29666365053e-07
2.28920003615e-07
2.27980762112e-07
2.26940784124e-07
2.2581075847e-07
2.24587301101e-07
2.2327790095e-07
2.2188224083e-07
2.20399738339e-07
2.1882534907e-07
2.17170679855e-07
2.15436554627e-07
2.13624973581e-07
2.117523242e-07
2.09821732713e-07
2.07837991033e-07
2.05909103584e-07
2.0387264126e-07
2.01837948394e-07
1.99814188989e-07
1.97829971665e-07
1.95901506577e-07
1.94043462878e-07
1.92280011158e-07
1.90715343586e-07
1.89202712127e-07
1.87841237432e-07
1.86646214307e-07
1.85627964393e-07
1.84801377838e-07
1.8417648373e-07
1.83757661705e-07
1.83552730099e-07
2.93247974368e-108
2.93247974368e-108
2.93247974368e-108
2.93247974368e-108
2.93247974368e-108
2.93247974369e-108
2.93247974369e-108
2.93247974369e-108
2.93247974369e-108
2.9324797437e-108
2.9324797437e-108
2.9324797437e-108
2.9324797437e-108
2.9324797437e-108
2.9324797437e-108
2.93247974371e-108
2.93247974371e-108
2.93247974371e-108
2.93247974371e-108
2.93247974371e-108
2.93247974372e-108
2.93247974372e-108
2.93247974376e-108
2.93247974607e-108
2.93247989665e-108
2.93248962299e-108
2.9331059124e-108
2.9576907659e-108
7.02624938479e-43
2.83186446941e-12
8.56822583215e-08
1.99777099044e-07
2.20514779289e-07
2.23209960337e-07
2.2747136166e-07
2.31277274465e-07
2.32106604166e-07
2.31538412291e-07
2.30594478764e-07
2.29508755875e-07
2.28330091673e-07
2.27069265954e-07
2.25726758091e-07
2.24293612874e-07
2.22778262471e-07
2.21181685742e-07
2.19503198834e-07
2.17741150316e-07
2.15912131175e-07
2.14012055812e-07
2.12056767246e-07
2.10132353135e-07
2.08088963843e-07
2.06024852146e-07
2.03947804962e-07
2.01877567117e-07
1.99832429532e-07
1.97830339929e-07
1.95894794943e-07
1.94120931448e-07
1.92366055639e-07
1.9072528333e-07
1.89224575958e-07
1.87878785464e-07
1.86700340232e-07
1.85700219395e-07
1.84887600082e-07
1.84272159567e-07
1.83858887297e-07
1.83656605716e-07
2.93247974346e-108
2.93247974346e-108
2.93247974346e-108
2.93247974346e-108
2.93247974347e-108
2.93247974347e-108
2.93247974347e-108
2.93247974347e-108
2.93247974347e-108
2.93247974348e-108
2.93247974348e-108
2.93247974348e-108
2.93247974348e-108
2.93247974348e-108
2.93247974348e-108
2.93247974348e-108
2.93247974349e-108
2.93247974349e-108
2.93247974349e-108
2.93247974349e-108
2.93247974349e-108
2.93247974349e-108
2.93247974359e-108
2.93247974974e-108
2.93248014598e-108
2.93250448821e-108
2.93401833248e-108
2.97172409466e-108
2.1206881313e-42
1.13150672162e-10
1.22545220099e-07
2.07434178689e-07
2.22725490838e-07
2.26198299328e-07
2.31593433066e-07
2.35106775376e-07
2.35485904748e-07
2.34619458004e-07
2.33430253684e-07
2.3214390292e-07
2.30792445455e-07
2.2937271858e-07
2.27872101997e-07
2.26295314802e-07
2.24639810391e-07
2.229033901e-07
2.21095946975e-07
2.19218326942e-07
2.17269462906e-07
2.15348302341e-07
2.13290199712e-07
2.11194220719e-07
2.09067494463e-07
2.06927818248e-07
2.04790299128e-07
2.0266402717e-07
2.00654944813e-07
1.98617332299e-07
1.96645076311e-07
1.94762482939e-07
1.92989789006e-07
1.91341105337e-07
1.89828592609e-07
1.88475911302e-07
1.87294305557e-07
1.86377835323e-07
1.85563963052e-07
1.84948224359e-07
1.84535656448e-07
1.84333368653e-07
2.93247974331e-108
2.93247974331e-108
2.93247974331e-108
2.93247974332e-108
2.93247974332e-108
2.93247974332e-108
2.93247974332e-108
2.93247974332e-108
2.93247974332e-108
2.93247974332e-108
2.93247974333e-108
2.93247974333e-108
2.93247974333e-108
2.93247974333e-108
2.93247974333e-108
2.93247974333e-108
2.93247974333e-108
2.93247974333e-108
2.93247974334e-108
2.93247974334e-108
2.93247974334e-108
2.93247974334e-108
2.93247974354e-108
2.932479756e-108
2.93248055642e-108
2.93252981081e-108
2.93567687557e-108
2.99905323886e-108
5.01748578827e-29
6.76246482562e-09
1.5348091034e-07
2.1277874671e-07
2.25197276414e-07
2.30090458818e-07
2.36484508951e-07
2.39604100351e-07
2.39616281568e-07
2.38467468756e-07
2.37093640485e-07
2.35625134739e-07
2.34091121476e-07
2.32488455259e-07
2.30822442852e-07
2.29085440947e-07
2.27272925859e-07
2.25392455686e-07
2.2344368808e-07
2.21511657167e-07
2.19439262565e-07
2.17313838403e-07
2.15150288117e-07
2.12951450945e-07
2.10731438793e-07
2.08504483597e-07
2.06370532247e-07
2.04175066098e-07
2.0201995814e-07
1.9992493454e-07
1.97910035848e-07
1.95987680142e-07
1.94177725247e-07
1.925884601e-07
1.91052711927e-07
1.89679842198e-07
1.88482180683e-07
1.87468636576e-07
1.86647980556e-07
1.86025544753e-07
1.85605691326e-07
1.85398536273e-07
2.9324797432e-108
2.9324797432e-108
2.93247974321e-108
2.93247974321e-108
2.93247974321e-108
2.93247974321e-108
2.93247974321e-108
2.93247974321e-108
2.93247974321e-108
2.93247974321e-108
2.93247974322e-108
2.93247974322e-108
2.93247974322e-108
2.93247974322e-108
2.93247974322e-108
2.93247974322e-108
2.93247974322e-108
2.93247974322e-108
2.93247974322e-108
2.93247974323e-108
2.93247974323e-108
2.93247974323e-108
2.93247974361e-108
2.93247976793e-108
2.93248133341e-108
2.93257636544e-108
2.93850373788e-108
3.0373085512e-108
2.11890031626e-22
1.93929560064e-08
1.70945972327e-07
2.17028946067e-07
2.28284864068e-07
2.34704091664e-07
2.41941626493e-07
2.44720795972e-07
2.44386427873e-07
2.43023434342e-07
2.41461587529e-07
2.39805555623e-07
2.38084075721e-07
2.36294388441e-07
2.34447393416e-07
2.32533895954e-07
2.30641836683e-07
2.28602736487e-07
2.26503271345e-07
2.24350691765e-07
2.22142473423e-07
2.19892522464e-07
2.17603724297e-07
2.15294818828e-07
2.13057429459e-07
2.10731374925e-07
2.08427128925e-07
2.06154848655e-07
2.03926328579e-07
2.01768429943e-07
1.99691363925e-07
1.97808274691e-07
1.95950707753e-07
1.9423455011e-07
1.92670845272e-07
1.91271785523e-07
1.90047452978e-07
1.89013049777e-07
1.88177420253e-07
1.8754398933e-07
1.87116687102e-07
1.86906237047e-07
2.93247974312e-108
2.93247974312e-108
2.93247974312e-108
2.93247974312e-108
2.93247974313e-108
2.93247974313e-108
2.93247974313e-108
2.93247974313e-108
2.93247974313e-108
2.93247974313e-108
2.93247974313e-108
2.93247974313e-108
2.93247974313e-108
2.93247974314e-108
2.93247974314e-108
2.93247974314e-108
2.93247974314e-108
2.93247974314e-108
2.93247974314e-108
2.93247974314e-108
2.93247974314e-108
2.93247974315e-108
2.93247974382e-108
2.93247978653e-108
2.9324825017e-108
2.93264528513e-108
2.94259541487e-108
3.08547860446e-108
4.95978853693e-19
3.28948076913e-08
1.81835815862e-07
2.21065191213e-07
2.32133961077e-07
2.40504697805e-07
2.48094329648e-07
2.50331981807e-07
2.49716365091e-07
2.48206820978e-07
2.46452212802e-07
2.44596768129e-07
2.4267589858e-07
2.4069342693e-07
2.38742286694e-07
2.36644780189e-07
2.34495180681e-07
2.32286214391e-07
2.3003192366e-07
2.27724825212e-07
2.2537368784e-07
2.22991961407e-07
2.20655832591e-07
2.18228793187e-07
2.15789380133e-07
2.13366771446e-07
2.10966819208e-07
2.08603900174e-07
2.06383109532e-07
2.04154898827e-07
2.02014397686e-07
1.99982289537e-07
1.98079905648e-07
1.96319170758e-07
1.94712073083e-07
1.93366767154e-07
1.92117073271e-07
1.9105740919e-07
1.90198618882e-07
1.89550034738e-07
1.89110987019e-07
1.88895394153e-07
2.93247974306e-108
2.93247974306e-108
2.93247974306e-108
2.93247974306e-108
2.93247974306e-108
2.93247974306e-108
2.93247974306e-108
2.93247974306e-108
2.93247974307e-108
2.93247974307e-108
2.93247974307e-108
2.93247974307e-108
2.93247974307e-108
2.93247974307e-108
2.93247974307e-108
2.93247974307e-108
2.93247974307e-108
2.93247974307e-108
2.93247974307e-108
2.93247974307e-108
2.93247974308e-108
2.93247974309e-108
2.9324797442e-108
2.93247981356e-108
2.93248414238e-108
2.93273871646e-108
2.94786545661e-108
3.14489780455e-108
3.82822860704e-15
4.83232609224e-08
1.9015858063e-07
2.25147436191e-07
2.37154348322e-07
2.470338084e-07
2.54584156022e-07
2.56793805657e-07
2.55756346712e-07
2.53986280486e-07
2.52009136679e-07
2.49943453664e-07
2.47813556953e-07
2.45707198037e-07
2.43470660058e-07
2.41182180383e-07
2.38850485632e-07
2.36464899621e-07
2.34041049151e-07
2.31570826459e-07
2.29154794411e-07
2.26624650145e-07
2.24074111133e-07
2.215153164e-07
2.18963181117e-07
2.16431257692e-07
2.14010757341e-07
2.11552814422e-07
2.09165760566e-07
2.06856352665e-07
2.04645772814e-07
2.0255547774e-07
2.00677285508e-07
1.9886778892e-07
1.9722138371e-07
1.95747003857e-07
1.94463813022e-07
1.93381126793e-07
1.92504309107e-07
1.91838253204e-07
1.91386651383e-07
1.91164466441e-07
2.93247974301e-108
2.93247974301e-108
2.93247974301e-108
2.93247974301e-108
2.93247974301e-108
2.93247974301e-108
2.93247974301e-108
2.93247974301e-108
2.93247974301e-108
2.93247974301e-108
2.93247974301e-108
2.93247974302e-108
2.93247974302e-108
2.93247974302e-108
2.93247974302e-108
2.93247974302e-108
2.93247974302e-108
2.93247974302e-108
2.93247974302e-108
2.93247974302e-108
2.93247974302e-108
2.93247974305e-108
2.93247974475e-108
2.93247984957e-108
2.9324862293e-108
2.93286071525e-108
2.953700387e-108
2.61621862446e-43
2.99727236623e-13
6.690883681e-08
1.97274645164e-07
2.29106984898e-07
2.42633417388e-07
2.54595278005e-07
2.62297559707e-07
2.63851061872e-07
2.62389182251e-07
2.60328164075e-07
2.58092985886e-07
2.55869342035e-07
2.53520442383e-07
2.5111606543e-07
2.48672409743e-07
2.46182466611e-07
2.4365093274e-07
2.41080343531e-07
2.38559222949e-07
2.35918917377e-07
2.33259708599e-07
2.30577173854e-07
2.27888229203e-07
2.25282190893e-07
2.22601324803e-07
2.19951977762e-07
2.17338020119e-07
2.14784976478e-07
2.12307149806e-07
2.0999963363e-07
2.07716256457e-07
2.05551951409e-07
2.03533891751e-07
2.01670239715e-07
1.99972804549e-07
1.98552650035e-07
1.97233126466e-07
1.96120555195e-07
1.95219223021e-07
1.94533656804e-07
1.94067783e-07
1.93838196543e-07
2.93247974296e-108
2.93247974296e-108
2.93247974296e-108
2.93247974297e-108
2.93247974297e-108
2.93247974297e-108
2.93247974297e-108
2.93247974297e-108
2.93247974297e-108
2.93247974297e-108
2.93247974297e-108
2.93247974297e-108
2.93247974297e-108
2.93247974297e-108
2.93247974297e-108
2.93247974297e-108
2.93247974298e-108
2.93247974298e-108
2.93247974298e-108
2.93247974298e-108
2.93247974298e-108
2.93247974302e-108
2.93247974571e-108
2.93247992057e-108
2.93249116215e-108
2.93320002714e-108
2.96001048475e-108
8.32568715118e-43
4.20862500754e-12
8.71482897915e-08
2.03751943287e-07
2.3372871344e-07
2.48835268228e-07
2.62892017315e-07
2.7039188093e-07
2.71379720721e-07
2.69657333279e-07
2.67195286657e-07
2.64752005362e-07
2.62194585626e-07
2.59594305383e-07
2.5695931854e-07
2.54288537141e-07
2.51587587426e-07
2.48927662687e-07
2.46160685756e-07
2.433694701e-07
2.40556659402e-07
2.37725689383e-07
2.34972500556e-07
2.3212782517e-07
2.29299202219e-07
2.26489838194e-07
2.23721443941e-07
2.21082910093e-07
2.18424968335e-07
2.15846802827e-07
2.13371140814e-07
2.11004479708e-07
2.0886262322e-07
2.0678003556e-07
2.048553946e-07
2.03110134387e-07
2.01557169453e-07
2.00204991619e-07
1.99061848705e-07
1.98134609044e-07
1.974278682e-07
1.96944226181e-07
1.96704874832e-07
2.93247974293e-108
2.93247974293e-108
2.93247974293e-108
2.93247974293e-108
2.93247974293e-108
2.93247974293e-108
2.93247974293e-108
2.93247974293e-108
2.93247974293e-108
2.93247974293e-108
2.93247974293e-108
2.93247974294e-108
2.93247974294e-108
2.93247974294e-108
2.93247974294e-108
2.93247974294e-108
2.93247974294e-108
2.93247974294e-108
2.93247974294e-108
2.93247974294e-108
2.93247974294e-108
2.93247974302e-108
2.93247974797e-108
2.93248007009e-108
2.93250006443e-108
2.93373808473e-108
2.96844532429e-108
1.65704270359e-42
3.51861801996e-11
1.09128685289e-07
2.09997640072e-07
2.39038581283e-07
2.56264835589e-07
2.71712505114e-07
2.79077214211e-07
2.79476900018e-07
2.77346185195e-07
2.74614515637e-07
2.71793206606e-07
2.68941490743e-07
2.66079261905e-07
2.63195732526e-07
2.60363189035e-07
2.57430545231e-07
2.54476788148e-07
2.51504717775e-07
2.48516195282e-07
2.45598513783e-07
2.42588306412e-07
2.3958729645e-07
2.36588774834e-07
2.33619721856e-07
2.30759713135e-07
2.27857272843e-07
2.25021018807e-07
2.22256002851e-07
2.19668783935e-07
2.17103117444e-07
2.14652950768e-07
2.12350031783e-07
2.10201903237e-07
2.08218745857e-07
2.06510916306e-07
2.04911148888e-07
2.03518880788e-07
2.02341411926e-07
2.0138422585e-07
2.00653275819e-07
2.00152633359e-07
1.99904031856e-07
2.9324797429e-108
2.9324797429e-108
2.9324797429e-108
2.9324797429e-108
2.9324797429e-108
2.9324797429e-108
2.9324797429e-108
2.9324797429e-108
2.9324797429e-108
2.9324797429e-108
2.9324797429e-108
2.9324797429e-108
2.93247974291e-108
2.93247974291e-108
2.93247974291e-108
2.93247974291e-108
2.93247974291e-108
2.93247974291e-108
2.93247974291e-108
2.93247974291e-108
2.93247974291e-108
2.93247974305e-108
2.93247975181e-108
2.93248030899e-108
2.9325140345e-108
2.93458196067e-108
2.98129053383e-108
2.873181527e-42
5.2680798444e-10
1.29596546603e-07
2.1614223375e-07
2.45203961803e-07
2.64680052556e-07
2.81113665841e-07
2.88149828126e-07
2.87949452189e-07
2.85402827995e-07
2.82330331845e-07
2.79193708942e-07
2.76056622605e-07
2.72913326345e-07
2.69840670455e-07
2.66684209298e-07
2.63511867021e-07
2.60335904726e-07
2.57224323912e-07
2.54027510388e-07
2.50836518163e-07
2.47646220802e-07
2.4455356779e-07
2.41398696066e-07
2.38269793083e-07
2.35189688212e-07
2.32159431627e-07
2.29288639155e-07
2.26410861182e-07
2.23638115784e-07
2.20974444045e-07
2.18535882305e-07
2.16158250879e-07
2.13940239284e-07
2.11896465725e-07
2.10048155055e-07
2.0840296142e-07
2.0697028532e-07
2.05843303327e-07
2.04859976428e-07
2.04107568775e-07
2.03589382885e-07
2.03331307543e-07
2.93247974287e-108
2.93247974287e-108
2.93247974287e-108
2.93247974287e-108
2.93247974287e-108
2.93247974287e-108
2.93247974288e-108
2.93247974288e-108
2.93247974288e-108
2.93247974288e-108
2.93247974288e-108
2.93247974288e-108
2.93247974288e-108
2.93247974288e-108
2.93247974288e-108
2.93247974288e-108
2.93247974288e-108
2.93247974288e-108
2.93247974288e-108
2.93247974288e-108
2.93247974289e-108
2.93247974313e-108
2.93247975832e-108
2.93248072121e-108
2.9325391704e-108
2.93619352399e-108
3.00736601976e-108
7.09324885914e-29
7.85030007469e-09
1.5299243149e-07
2.22467191935e-07
2.51733940108e-07
2.74474528687e-07
2.91375692954e-07
2.97586170895e-07
2.96766213191e-07
2.93774494521e-07
2.90370152603e-07
2.86917929821e-07
2.83551225048e-07
2.80114756369e-07
2.76688913621e-07
2.73270100526e-07
2.69928309633e-07
2.66517406399e-07
2.63102294187e-07
2.59701821969e-07
2.5638683522e-07
2.53013317589e-07
2.496555392e-07
2.4633841919e-07
2.43143036193e-07
2.39912799319e-07
2.36755411187e-07
2.33670527199e-07
2.3077054903e-07
2.27893201172e-07
2.25136118184e-07
2.22526887371e-07
2.2007404247e-07
2.17874880965e-07
2.15771886335e-07
2.138623817e-07
2.12168733107e-07
2.1069472283e-07
2.09447805362e-07
2.08433517147e-07
2.07657018546e-07
2.07210486158e-07
2.0693935486e-07
2.93247974285e-108
2.93247974285e-108
2.93247974285e-108
2.93247974285e-108
2.93247974285e-108
2.93247974285e-108
2.93247974285e-108
2.93247974285e-108
2.93247974285e-108
2.93247974285e-108
2.93247974285e-108
2.93247974286e-108
2.93247974286e-108
2.93247974286e-108
2.93247974286e-108
2.93247974286e-108
2.93247974286e-108
2.93247974286e-108
2.93247974286e-108
2.93247974286e-108
2.93247974287e-108
2.93247974331e-108
2.9324797712e-108
2.93248153902e-108
2.93258759701e-108
2.93909724291e-108
3.0474650699e-108
2.77975579471e-22
1.96807337401e-08
1.71386016557e-07
2.29191486367e-07
2.59652833471e-07
2.84620783191e-07
3.01929965491e-07
3.0738759426e-07
3.05869622413e-07
3.02425659572e-07
2.98656953183e-07
2.94951017829e-07
2.91194211885e-07
2.87463833845e-07
2.83755095611e-07
2.80140553572e-07
2.76470670741e-07
2.72813463583e-07
2.69254406505e-07
2.65633625035e-07
2.6203601088e-07
2.58471271312e-07
2.55021302643e-07
2.51527773506e-07
2.48095950761e-07
2.44807767574e-07
2.41515198639e-07
2.38307428291e-07
2.35205034127e-07
2.32311248297e-07
2.29459323535e-07
2.2676153812e-07
2.2422960291e-07
2.21877312284e-07
2.19801367771e-07
2.17842380033e-07
2.16099580756e-07
2.14581928915e-07
2.13298370271e-07
2.12250505505e-07
2.11445803765e-07
2.10886695073e-07
2.10602519855e-07
2.93247974283e-108
2.93247974283e-108
2.93247974283e-108
2.93247974283e-108
2.93247974283e-108
2.93247974283e-108
2.93247974283e-108
2.93247974283e-108
2.93247974283e-108
2.93247974283e-108
2.93247974283e-108
2.93247974284e-108
2.93247974284e-108
2.93247974284e-108
2.93247974284e-108
2.93247974284e-108
2.93247974284e-108
2.93247974284e-108
2.93247974284e-108
2.93247974284e-108
2.93247974285e-108
2.93247974368e-108
2.93247979583e-108
2.93248306991e-108
2.93267690985e-108
2.94427038426e-108
3.1082560172e-108
1.50490474076e-18
3.40542094899e-08
1.84608506277e-07
2.36789823825e-07
2.69103912126e-07
2.96046600385e-07
3.13006283748e-07
3.17304284485e-07
3.15073833435e-07
3.1122358482e-07
3.07188658492e-07
3.03077772306e-07
2.99008038126e-07
2.95049299402e-07
2.91056095093e-07
2.87090092375e-07
2.83232445842e-07
2.79335204618e-07
2.75462645382e-07
2.71623647254e-07
2.6789656919e-07
2.64138476784e-07
2.60424341329e-07
2.56847819409e-07
2.53255734195e-07
2.49734388774e-07
2.46392385928e-07
2.43062263823e-07
2.39847297153e-07
2.36765179009e-07
2.33907241188e-07
2.31125910844e-07
2.28512853948e-07
2.26086928171e-07
2.23863524448e-07
2.21943348149e-07
2.20152887346e-07
2.18592496922e-07
2.17267415017e-07
2.16188153929e-07
2.15359123521e-07
2.14780372282e-07
2.14482692244e-07
2.93247974281e-108
2.93247974281e-108
2.93247974281e-108
2.93247974281e-108
2.93247974281e-108
2.93247974281e-108
2.93247974281e-108
2.93247974282e-108
2.93247974282e-108
2.93247974282e-108
2.93247974282e-108
2.93247974282e-108
2.93247974282e-108
2.93247974282e-108
2.93247974282e-108
2.93247974282e-108
2.93247974282e-108
2.93247974282e-108
2.93247974282e-108
2.93247974282e-108
2.93247974285e-108
2.93247974441e-108
2.932479841e-108
2.93248573253e-108
2.93282438205e-108
2.95214118538e-108
5.03286060951e-44
4.02762143366e-14
5.38760885383e-08
1.96244163772e-07
2.45372658965e-07
2.79736442134e-07
3.08730596592e-07
3.24604087802e-07
3.27368937316e-07
3.24414049859e-07
3.20211596158e-07
3.15754740061e-07
3.11309777236e-07
3.06987800956e-07
3.02647438174e-07
2.98354723385e-07
2.94189227439e-07
2.89999852562e-07
2.85850530775e-07
2.81823845573e-07
2.77767636225e-07
2.73754711151e-07
2.69879395466e-07
2.65986450774e-07
2.62155086009e-07
2.58492481371e-07
2.54828229627e-07
2.51266455526e-07
2.47902793689e-07
2.44575541842e-07
2.41383342154e-07
2.38350312883e-07
2.35570415772e-07
2.32881403077e-07
2.30389999904e-07
2.28107158831e-07
2.26041953724e-07
2.24294546556e-07
2.22694057921e-07
2.21334580131e-07
2.20223369601e-07
2.1936516662e-07
2.1876365142e-07
2.18448175245e-07
2.9324797428e-108
2.9324797428e-108
2.9324797428e-108
2.9324797428e-108
2.9324797428e-108
2.9324797428e-108
2.9324797428e-108
2.9324797428e-108
2.9324797428e-108
2.9324797428e-108
2.9324797428e-108
2.9324797428e-108
2.9324797428e-108
2.9324797428e-108
2.9324797428e-108
2.9324797428e-108
2.9324797428e-108
2.9324797428e-108
2.93247974281e-108
2.93247974281e-108
2.93247974285e-108
2.93247974578e-108
2.93247993055e-108
2.93249158347e-108
2.93321155316e-108
2.9616398234e-108
7.98767934633e-43
2.94810038302e-12
7.94003750278e-08
2.07511351581e-07
2.55128265294e-07
2.91766607912e-07
3.21843388467e-07
3.36446154522e-07
3.37635218854e-07
3.33904185566e-07
3.29147803249e-07
3.24316881648e-07
3.19597513709e-07
3.14888810856e-07
3.10318825921e-07
3.05737383708e-07
3.01225764726e-07
2.96846559354e-07
2.92453375223e-07
2.88120839725e-07
2.83920928226e-07
2.79708399187e-07
2.75639257679e-07
2.71569592292e-07
2.67575435358e-07
2.63755365968e-07
2.59950963601e-07
2.5625447228e-07
2.52685282866e-07
2.4933185969e-07
2.4604394805e-07
2.42919599482e-07
2.40058749627e-07
2.37298147394e-07
2.34740898843e-07
2.32397404227e-07
2.30279187883e-07
2.28490089052e-07
2.26847470999e-07
2.25454042649e-07
2.24313687058e-07
2.23430859704e-07
2.22806371931e-07
2.22472557688e-07
2.93247974278e-108
2.93247974278e-108
2.93247974278e-108
2.93247974278e-108
2.93247974278e-108
2.93247974278e-108
2.93247974278e-108
2.93247974279e-108
2.93247974279e-108
2.93247974279e-108
2.93247974279e-108
2.93247974279e-108
2.93247974279e-108
2.93247974279e-108
2.93247974279e-108
2.93247974279e-108
2.93247974279e-108
2.93247974279e-108
2.93247974279e-108
2.93247974279e-108
2.9324797429e-108
2.93247974987e-108
2.93248019223e-108
2.9325069776e-108
2.93412224434e-108
2.97578462058e-108
2.02903495636e-42
6.41915215794e-11
1.10167201287e-07
2.18877833429e-07
2.66343276119e-07
3.05514439694e-07
3.35801122018e-07
3.48025118596e-07
3.4770947459e-07
3.43231137094e-07
3.38025402791e-07
3.32877607173e-07
3.27755535899e-07
3.22794498196e-07
3.17850411379e-07
3.13059881102e-07
3.08273249953e-07
3.03560941911e-07
2.99004102067e-07
2.94441503043e-07
2.90032009343e-07
2.85617421813e-07
2.81282021357e-07
2.7711818817e-07
2.72960192142e-07
2.68911882174e-07
2.65057031612e-07
2.61237134029e-07
2.57542419725e-07
2.54090712622e-07
2.50710620587e-07
2.47492304543e-07
2.44467310942e-07
2.41726412872e-07
2.39104723524e-07
2.36704657039e-07
2.34537498843e-07
2.32704949923e-07
2.31022189433e-07
2.29589250675e-07
2.28415480511e-07
2.27505579034e-07
2.26856717295e-07
2.26502758421e-07
2.93247974277e-108
2.93247974277e-108
2.93247974277e-108
2.93247974277e-108
2.93247974277e-108
2.93247974277e-108
2.93247974277e-108
2.93247974277e-108
2.93247974277e-108
2.93247974277e-108
2.93247974277e-108
2.93247974277e-108
2.93247974278e-108
2.93247974278e-108
2.93247974278e-108
2.93247974278e-108
2.93247974278e-108
2.93247974278e-108
2.93247974278e-108
2.93247974278e-108
2.93247974304e-108
2.93247975906e-108
2.93248074561e-108
2.93253868622e-108
2.9360144114e-108
3.00588258724e-108
4.82588502412e-29
5.15510386662e-09
1.41386669527e-07
2.30782372043e-07
2.79160252594e-07
3.20838545763e-07
3.49888208168e-07
3.59577057736e-07
3.57577725135e-07
3.52402887223e-07
3.46825521749e-07
3.41241090588e-07
3.35839565448e-07
3.30486690844e-07
3.25305477198e-07
3.20157780584e-07
3.15182701999e-07
3.1021966869e-07
3.0543025073e-07
3.00641861064e-07
2.95948891488e-07
2.91417896091e-07
2.86904833876e-07
2.82574030291e-07
2.7826813598e-07
2.74068823984e-07
2.70082653509e-07
2.66140248872e-07
2.62348997982e-07
2.58798407563e-07
2.55325699243e-07
2.52030429907e-07
2.48933443171e-07
2.46131927882e-07
2.43451009026e-07
2.40989733535e-07
2.38773688791e-07
2.3689638959e-07
2.35177140055e-07
2.33714592573e-07
2.32512623628e-07
2.31573481337e-07
2.30901284712e-07
2.30522658187e-07
2.93247974276e-108
2.93247974276e-108
2.93247974276e-108
2.93247974276e-108
2.93247974276e-108
2.93247974276e-108
2.93247974276e-108
2.93247974276e-108
2.93247974276e-108
2.93247974276e-108
2.93247974276e-108
2.93247974276e-108
2.93247974276e-108
2.93247974276e-108
2.93247974276e-108
2.93247974277e-108
2.93247974277e-108
2.93247974277e-108
2.93247974277e-108
2.93247974278e-108
2.93247974339e-108
2.93247978152e-108
2.93248214022e-108
2.93262070183e-108
2.94087172083e-108
3.07203006635e-108
4.8504731894e-22
2.21327880485e-08
1.7357725949e-07
2.43534226651e-07
2.93655270769e-07
3.3694805266e-07
3.63811150509e-07
3.70468584803e-07
3.67060198133e-07
3.61336811061e-07
3.55299365383e-07
3.49424396181e-07
3.43621511823e-07
3.38020714066e-07
3.32488101092e-07
3.27130227894e-07
3.21815550489e-07
3.16683046983e-07
3.11584240084e-07
3.06661858253e-07
3.01770608219e-07
2.97060213614e-07
2.92370715531e-07
2.87881975345e-07
2.83433942402e-07
2.79112153348e-07
2.74999696307e-07
2.70948234139e-07
2.67052046334e-07
2.6340698297e-07
2.59855793971e-07
2.56487157597e-07
2.53413959306e-07
2.50457691848e-07
2.47720789037e-07
2.45216849778e-07
2.42956343373e-07
2.41037075222e-07
2.39281397777e-07
2.37784747624e-07
2.36553946712e-07
2.35591038108e-07
2.34890334834e-07
2.34484948776e-07
2.93247974275e-108
2.93247974275e-108
2.93247974275e-108
2.93247974275e-108
2.93247974275e-108
2.93247974275e-108
2.93247974275e-108
2.93247974275e-108
2.93247974275e-108
2.93247974275e-108
2.93247974275e-108
2.93247974275e-108
2.93247974275e-108
2.93247974275e-108
2.93247974275e-108
2.93247974275e-108
2.93247974276e-108
2.93247974276e-108
2.93247974276e-108
2.93247974278e-108
2.93247974434e-108
2.93247983969e-108
2.9324856154e-108
2.93281594007e-108
2.95152022147e-108
3.19207796145e-108
7.38339394335e-15
4.62380293976e-08
1.94893484993e-07
2.5835448104e-07
3.10392571958e-07
3.54123054542e-07
3.77349703226e-07
3.80830947421e-07
3.76140216405e-07
3.69821595961e-07
3.6347274059e-07
3.57204532577e-07
3.51154244764e-07
3.45258342944e-07
3.39430933885e-07
3.33807258732e-07
3.28249012446e-07
3.22881968242e-07
3.17565997518e-07
3.12439971789e-07
3.07354969502e-07
3.02470101338e-07
2.97629406943e-07
2.92993619818e-07
2.88409083622e-07
2.83959213737e-07
2.79742770184e-07