/*--------------------------------*- C++ -*----------------------------------*\
| =========                 |                                                 |
| \\      /  F ield         | foam-extend: Open Source CFD                    |
|  \\    /   O peration     | Version:     4.1                                |
|   \\  /    A nd           | Web:         http://www.foam-extend.org         |
|    \\/     M anipulation  |                                                 |
\*---------------------------------------------------------------------------*/
FoamFile
{
    version     2.0;
    format      ascii;
    class       volScalarField;
    location    "0.0003";
    object      OPlus;
}
// * * * * * * * * * * * * * * * * * * * * * * * * * * * * * * * * * * * * * //

dimensions      [0 0 0 0 0 0 0];

internalField   nonuniform List<scalar> 
8400
(
6.45488963444e-195
6.45488963448e-195
6.45488963453e-195
6.45488963457e-195
6.4548896346e-195
6.45488963464e-195
6.45488963468e-195
6.45488963472e-195
6.45488963476e-195
6.45488963479e-195
6.45488963483e-195
6.45488963486e-195
6.4548896349e-195
6.45488963493e-195
6.45488963496e-195
6.454889635e-195
6.45488963503e-195
6.45488963506e-195
6.45488963509e-195
6.45488963512e-195
6.45488963515e-195
6.45488963518e-195
6.45488963521e-195
6.45488963525e-195
6.4548896364e-195
6.45488970767e-195
6.45489421896e-195
6.45516403202e-195
6.47176177559e-195
6.73219466474e-195
1.51806209468e-34
1.5593699694e-06
0.0109318425485
0.0652958060528
0.109170840707
0.1330236176
0.143096657222
0.147017740817
0.148371464349
0.148939346032
0.149330504006
0.149689726592
0.150047878706
0.15041403756
0.150787280103
0.151172513198
0.151548673979
0.151963713384
0.152394040342
0.152842718133
0.153309816704
0.153794535604
0.154272831098
0.154790286159
0.155321276975
0.155863887074
0.15641211917
0.156961569396
0.157482691039
0.158016972627
0.158536961295
0.159031974147
0.159496978652
0.159924253536
0.16030679126
0.160635155885
0.160905531386
0.161088399512
0.161230691255
0.161427793237
6.45488962636e-195
6.45488962638e-195
6.45488962639e-195
6.45488962641e-195
6.45488962643e-195
6.45488962644e-195
6.45488962646e-195
6.45488962647e-195
6.45488962649e-195
6.4548896265e-195
6.45488962652e-195
6.45488962653e-195
6.45488962654e-195
6.45488962656e-195
6.45488962657e-195
6.45488962658e-195
6.4548896266e-195
6.45488962661e-195
6.45488962662e-195
6.45488962664e-195
6.45488962665e-195
6.45488962666e-195
6.45488962667e-195
6.45488962678e-195
6.45488963257e-195
6.45489000846e-195
6.45491410539e-195
6.45643082083e-195
6.51548192012e-195
2.86667791082e-73
7.9240422108e-16
5.75708993633e-05
0.035408750156
0.0886265907504
0.123575970343
0.140277741839
0.146989474134
0.14926385506
0.150018014659
0.150401221831
0.150733645767
0.151068687281
0.151415672943
0.151780541034
0.152163393008
0.152563586985
0.152983463582
0.153423566689
0.153883229876
0.154360714856
0.154858023415
0.155370495264
0.155897522719
0.15643993645
0.156967308274
0.157524719258
0.158081223548
0.158634322702
0.159177284331
0.159704500205
0.160211756786
0.160692310321
0.161138877351
0.16152105944
0.161880636647
0.162188008686
0.162440421131
0.162633598581
0.162765100905
0.162903192247
6.45488962343e-195
6.45488962344e-195
6.45488962345e-195
6.45488962346e-195
6.45488962347e-195
6.45488962348e-195
6.45488962349e-195
6.4548896235e-195
6.45488962351e-195
6.45488962352e-195
6.45488962353e-195
6.45488962353e-195
6.45488962354e-195
6.45488962355e-195
6.45488962356e-195
6.45488962357e-195
6.45488962357e-195
6.45488962358e-195
6.45488962359e-195
6.4548896236e-195
6.45488962361e-195
6.45488962361e-195
6.45488962363e-195
6.45488962422e-195
6.45488966169e-195
6.45489209086e-195
6.45504179239e-195
6.46449558309e-195
6.6399066603e-195
1.21332146988e-46
1.94013435599e-07
0.00492366506182
0.0594335012631
0.106579835855
0.13297692432
0.144492191343
0.148775137078
0.150130650386
0.150652039106
0.150980611394
0.151291028907
0.151613830017
0.151954798853
0.15231402691
0.152692253828
0.153091035338
0.153511088088
0.153950728099
0.154409441578
0.154888232489
0.155383622864
0.155894777424
0.156421498385
0.156957406617
0.157501376746
0.15802320077
0.158567424005
0.159104346734
0.15962858996
0.160135680647
0.160619746338
0.161074060711
0.161494003849
0.161876954993
0.162189813183
0.162478361237
0.162712390644
0.162889527186
0.163009045704
0.163126329569
6.454889622e-195
6.45488962201e-195
6.45488962202e-195
6.45488962202e-195
6.45488962203e-195
6.45488962204e-195
6.45488962204e-195
6.45488962205e-195
6.45488962206e-195
6.45488962206e-195
6.45488962207e-195
6.45488962207e-195
6.45488962208e-195
6.45488962209e-195
6.45488962209e-195
6.4548896221e-195
6.4548896221e-195
6.45488962211e-195
6.45488962211e-195
6.45488962212e-195
6.45488962212e-195
6.45488962213e-195
6.45488962217e-195
6.45488962447e-195
6.45488976883e-195
6.45489880589e-195
6.4554319667e-195
6.48746809643e-195
6.91131942566e-195
2.68413594458e-22
9.34350913691e-06
0.0214186174579
0.0768151931707
0.117314403083
0.137813597614
0.146318587957
0.149246783848
0.15019080557
0.150599129157
0.150924186593
0.151247939325
0.15158678931
0.151944985085
0.152321106142
0.152715962701
0.153130726382
0.153566305944
0.15401993021
0.154491783072
0.15498192545
0.155486645195
0.156005110451
0.156537941394
0.157053275866
0.157597646667
0.158139904295
0.158679606586
0.159209647552
0.159725538394
0.160222769849
0.160695447743
0.16111361823
0.16151999523
0.161887104707
0.162210607876
0.16248679917
0.162710683673
0.162879576403
0.16299293249
0.163100119536
6.45488962119e-195
6.45488962119e-195
6.4548896212e-195
6.4548896212e-195
6.45488962121e-195
6.45488962121e-195
6.45488962122e-195
6.45488962122e-195
6.45488962123e-195
6.45488962123e-195
6.45488962124e-195
6.45488962124e-195
6.45488962125e-195
6.45488962125e-195
6.45488962126e-195
6.45488962126e-195
6.45488962126e-195
6.45488962127e-195
6.45488962127e-195
6.45488962128e-195
6.45488962128e-195
6.45488962129e-195
6.45488962138e-195
6.4548896269e-195
6.45488998708e-195
6.45491325114e-195
6.45638733008e-195
6.51519089548e-195
2.84237070032e-73
7.64727321694e-16
5.77271000689e-05
0.0354665271573
0.0886874433061
0.123555305521
0.140135799053
0.146716049452
0.148949548073
0.14969418785
0.15009151104
0.150439369318
0.1507931867
0.151161538085
0.151546237544
0.151950732592
0.152372919132
0.152813092047
0.153272033606
0.153749949099
0.154243422327
0.154753800712
0.155277762525
0.155790359901
0.156335865367
0.156885981045
0.157438869195
0.157989256781
0.15853315916
0.159066730264
0.159584458376
0.16005774781
0.160527607313
0.160967263936
0.161369557951
0.161731192624
0.162049005006
0.162319011544
0.162538462805
0.162704626502
0.16281670485
0.162920522744
6.45488962067e-195
6.45488962067e-195
6.45488962068e-195
6.45488962068e-195
6.45488962069e-195
6.45488962069e-195
6.45488962069e-195
6.4548896207e-195
6.4548896207e-195
6.45488962071e-195
6.45488962071e-195
6.45488962071e-195
6.45488962072e-195
6.45488962072e-195
6.45488962072e-195
6.45488962073e-195
6.45488962073e-195
6.45488962073e-195
6.45488962074e-195
6.45488962074e-195
6.45488962074e-195
6.45488962075e-195
6.45488962098e-195
6.45488963569e-195
6.45489058345e-195
6.45494880667e-195
6.45856971257e-195
6.54875667474e-195
8.36043321891e-73
9.58030752479e-13
0.000261176888786
0.0467786052655
0.0969543362454
0.127259998381
0.141064289358
0.146378211444
0.148152751053
0.148813204449
0.149238188557
0.149627931753
0.150021225755
0.150426723885
0.15084937724
0.151287460898
0.151742265205
0.152215068044
0.152702826716
0.15320724341
0.153729118516
0.154241005559
0.154789900441
0.155346664579
0.155910781575
0.156478318966
0.157045257178
0.157610151725
0.158142833581
0.158685708462
0.159211085933
0.159713313722
0.160187164681
0.160628744109
0.161035317042
0.161398971822
0.161717133395
0.161961913058
0.162181483168
0.162347715618
0.162460125054
0.162562973033
6.45488962031e-195
6.45488962032e-195
6.45488962032e-195
6.45488962032e-195
6.45488962033e-195
6.45488962033e-195
6.45488962033e-195
6.45488962034e-195
6.45488962034e-195
6.45488962034e-195
6.45488962035e-195
6.45488962035e-195
6.45488962035e-195
6.45488962036e-195
6.45488962036e-195
6.45488962036e-195
6.45488962037e-195
6.45488962037e-195
6.45488962037e-195
6.45488962037e-195
6.45488962038e-195
6.45488962039e-195
6.45488962086e-195
6.45488965067e-195
6.45489156515e-195
6.45500937483e-195
6.46253671799e-195
6.61412420353e-195
6.42080465647e-47
5.62957853673e-08
0.00287329534071
0.0556720107973
0.102694812193
0.129385377468
0.141115742767
0.145566934263
0.147051800545
0.147688863434
0.148138370593
0.148566496307
0.149001197362
0.149449338283
0.149909308204
0.150383972367
0.150875493016
0.151382344209
0.151905552054
0.152419394885
0.152969957142
0.153533337601
0.154106185312
0.154687937732
0.155274573021
0.155863997263
0.156427423392
0.157009251969
0.157580173726
0.158136353811
0.158672105337
0.159184197959
0.159668279075
0.16009231855
0.160504377886
0.160872490629
0.161193804499
0.161466130743
0.161686901975
0.161854637369
0.161968101194
0.16206959538
6.45488962005e-195
6.45488962006e-195
6.45488962006e-195
6.45488962006e-195
6.45488962007e-195
6.45488962007e-195
6.45488962007e-195
6.45488962008e-195
6.45488962008e-195
6.45488962008e-195
6.45488962008e-195
6.45488962009e-195
6.45488962009e-195
6.45488962009e-195
6.4548896201e-195
6.4548896201e-195
6.4548896201e-195
6.4548896201e-195
6.45488962011e-195
6.45488962011e-195
6.45488962011e-195
6.45488962013e-195
6.45488962103e-195
6.45488967921e-195
6.45489342362e-195
6.45512072706e-195
6.46929818122e-195
6.7056256136e-195
8.44220558164e-35
1.02761074931e-06
0.00894924605928
0.0630681966704
0.106774855854
0.130535522849
0.140621781499
0.144418389908
0.145715641566
0.146337518169
0.146818615237
0.147289013028
0.147767580004
0.148258358708
0.148759745072
0.1492761136
0.149781923609
0.150326384118
0.150884459357
0.151454720306
0.152038369612
0.152631394054
0.1532339945
0.153842881436
0.154431216899
0.155044912225
0.155652092867
0.156252501306
0.156842662904
0.157413648117
0.157965533027
0.158464091725
0.15895924302
0.159416678811
0.159834187157
0.160208374224
0.160536646552
0.160814284646
0.161038585388
0.161208300983
0.161322552661
0.161422664368
6.45488961986e-195
6.45488961986e-195
6.45488961986e-195
6.45488961987e-195
6.45488961987e-195
6.45488961987e-195
6.45488961988e-195
6.45488961988e-195
6.45488961988e-195
6.45488961988e-195
6.45488961989e-195
6.45488961989e-195
6.45488961989e-195
6.45488961989e-195
6.4548896199e-195
6.4548896199e-195
6.4548896199e-195
6.4548896199e-195
6.4548896199e-195
6.45488961991e-195
6.45488961991e-195
6.45488961994e-195
6.45488962154e-195
6.45488972368e-195
6.45489621801e-195
6.45528557342e-195
6.47908490601e-195
6.82084171109e-195
2.74446402734e-26
4.19086376125e-06
0.0153549285283
0.0690316652692
0.109679263002
0.130828303845
0.139688100396
0.143029316396
0.144186798063
0.144790816287
0.145305480875
0.145818898502
0.14634194891
0.146877745841
0.147399611656
0.14795883869
0.148528067492
0.149111713676
0.149706163452
0.15031330021
0.150931185686
0.151557063526
0.15216891573
0.152806078467
0.153445529635
0.154081490672
0.154712275931
0.155335409244
0.155919632473
0.156509672736
0.157076027732
0.157614042199
0.158118358958
0.158585792983
0.159015030588
0.159372692568
0.159707397388
0.159990350412
0.160219519203
0.160392526447
0.160509360232
0.160609607941
6.45488961971e-195
6.45488961971e-195
6.45488961971e-195
6.45488961971e-195
6.45488961972e-195
6.45488961972e-195
6.45488961972e-195
6.45488961972e-195
6.45488961972e-195
6.45488961973e-195
6.45488961973e-195
6.45488961973e-195
6.45488961973e-195
6.45488961974e-195
6.45488961974e-195
6.45488961974e-195
6.45488961974e-195
6.45488961974e-195
6.45488961975e-195
6.45488961975e-195
6.45488961975e-195
6.45488961979e-195
6.45488962243e-195
6.45488978835e-195
6.45490014227e-195
6.45550904822e-195
6.49169011614e-195
6.96296421019e-195
2.2742088976e-20
1.14737107425e-05
0.0215235084354
0.0740045329894
0.111538060497
0.130601742591
0.138506218185
0.141325931322
0.14242364554
0.143052767025
0.143612071174
0.144171687859
0.144742075939
0.145300274005
0.145891503654
0.146493164713
0.147104802696
0.147730166627
0.148364217238
0.149011015699
0.149640679788
0.150301894254
0.150968012551
0.151637026928
0.152304639678
0.152968682361
0.153600411069
0.15424653345
0.154874653646
0.155482867898
0.156066112989
0.156618736968
0.157113472548
0.157593739413
0.158030861046
0.158423190383
0.158764864731
0.159053173335
0.159286451649
0.15946328541
0.159582618847
0.159683288108
6.45488961958e-195
6.45488961958e-195
6.45488961959e-195
6.45488961959e-195
6.45488961959e-195
6.45488961959e-195
6.45488961959e-195
6.4548896196e-195
6.4548896196e-195
6.4548896196e-195
6.4548896196e-195
6.45488961961e-195
6.45488961961e-195
6.45488961961e-195
6.45488961961e-195
6.45488961961e-195
6.45488961962e-195
6.45488961962e-195
6.45488961962e-195
6.45488961962e-195
6.45488961962e-195
6.45488961969e-195
6.45488962377e-195
6.45488987446e-195
6.45490513391e-195
6.45580085245e-195
6.50564646168e-195
1.06629733339e-73
1.9919443556e-17
2.74695892795e-05
0.0273889625005
0.0784957408451
0.112916370185
0.129849529613
0.136843916446
0.139401187766
0.14046469332
0.141130912936
0.141744264033
0.142334581247
0.142953859707
0.143584326096
0.144221569574
0.14486890284
0.145526232234
0.146194431198
0.146847287621
0.147534389043
0.148224644171
0.148921588982
0.149622044271
0.15029835326
0.150998179378
0.151688956191
0.152371918077
0.153040599352
0.153691524429
0.15429550065
0.15489664146
0.155466008223
0.155998109933
0.156490713004
0.156941039682
0.157315564324
0.157666431024
0.157961410172
0.158200077719
0.158381314831
0.158503646891
0.158605019764
6.45488961948e-195
6.45488961948e-195
6.45488961948e-195
6.45488961949e-195
6.45488961949e-195
6.45488961949e-195
6.45488961949e-195
6.45488961949e-195
6.4548896195e-195
6.4548896195e-195
6.4548896195e-195
6.4548896195e-195
6.4548896195e-195
6.45488961951e-195
6.45488961951e-195
6.45488961951e-195
6.45488961951e-195
6.45488961951e-195
6.45488961951e-195
6.45488961952e-195
6.45488961952e-195
6.45488961962e-195
6.45488962604e-195
6.4548900443e-195
6.45491693258e-195
6.4566124395e-195
6.52073934176e-195
3.35470885448e-73
1.51315135639e-15
5.93115079642e-05
0.0331689177079
0.0822089611834
0.113818770776
0.128747037997
0.134991165423
0.137296224711
0.138297550838
0.139038867816
0.139689049851
0.140355879384
0.141029883665
0.14171107329
0.142400490019
0.143097390494
0.143780589739
0.144494140069
0.145212989622
0.145938573628
0.146669995141
0.147379866405
0.148116972031
0.148850232758
0.149579492418
0.150299790092
0.150986096709
0.151680548046
0.152354643241
0.153002859533
0.153625501727
0.154186667891
0.154735503372
0.155242430454
0.155702815932
0.156113465256
0.156471530749
0.156773887782
0.157018265223
0.157203521326
0.157329168143
0.157430858646
6.45488961939e-195
6.4548896194e-195
6.4548896194e-195
6.4548896194e-195
6.4548896194e-195
6.4548896194e-195
6.45488961941e-195
6.45488961941e-195
6.45488961941e-195
6.45488961941e-195
6.45488961941e-195
6.45488961942e-195
6.45488961942e-195
6.45488961942e-195
6.45488961942e-195
6.45488961942e-195
6.45488961942e-195
6.45488961943e-195
6.45488961943e-195
6.45488961943e-195
6.45488961943e-195
6.45488961961e-195
6.45488963147e-195
6.45489040193e-195
6.4549382256e-195
6.45789939875e-195
6.54091431003e-195
6.57434769416e-73
7.7155778963e-14
0.000132883308429
0.0387523481188
0.0853477052142
0.114134235637
0.127404248038
0.132895384405
0.134987328483
0.135981948101
0.136757974852
0.137492499284
0.138224377428
0.138956134602
0.139693397181
0.140414241178
0.141163509093
0.141918269977
0.142678036427
0.143443859951
0.144189757462
0.144962912042
0.145734403311
0.146506864294
0.147273763226
0.148011107177
0.148763769793
0.14950033794
0.150220678169
0.150893228268
0.151564794556
0.152206093559
0.152811110453
0.153376118546
0.1538995629
0.154347221234
0.154769853742
0.155136824752
0.15544664345
0.155697832452
0.155888357436
0.156017049295
0.156118795504
6.45488961932e-195
6.45488961932e-195
6.45488961933e-195
6.45488961933e-195
6.45488961933e-195
6.45488961933e-195
6.45488961933e-195
6.45488961933e-195
6.45488961934e-195
6.45488961934e-195
6.45488961934e-195
6.45488961934e-195
6.45488961934e-195
6.45488961934e-195
6.45488961935e-195
6.45488961935e-195
6.45488961935e-195
6.45488961935e-195
6.45488961935e-195
6.45488961935e-195
6.45488961936e-195
6.45488961969e-195
6.45488964063e-195
6.45489097334e-195
6.45497164009e-195
6.45991783314e-195
6.57163827261e-195
1.11436428645e-72
5.13381986604e-11
0.000350031941759
0.0442821885708
0.0879850187748
0.114052463438
0.125824012297
0.130619158452
0.132519442936
0.133522615323
0.134357836874
0.135158997193
0.135952793784
0.136746896975
0.137520938299
0.138318549099
0.139120873854
0.139925726469
0.140713399403
0.141526194699
0.142338780196
0.14315410973
0.143943242796
0.144752802618
0.145557412706
0.146350653055
0.147133601433
0.147874840946
0.148622218855
0.149342699618
0.150038291365
0.150674105292
0.151298099317
0.151880819529
0.152418422184
0.152904039222
0.153336467103
0.15371377564
0.154007190224
0.154265263231
0.154460311892
0.154592303031
0.154694328918
6.45488961926e-195
6.45488961926e-195
6.45488961926e-195
6.45488961927e-195
6.45488961927e-195
6.45488961927e-195
6.45488961927e-195
6.45488961927e-195
6.45488961927e-195
6.45488961928e-195
6.45488961928e-195
6.45488961928e-195
6.45488961928e-195
6.45488961928e-195
6.45488961928e-195
6.45488961928e-195
6.45488961929e-195
6.45488961929e-195
6.45488961929e-195
6.45488961929e-195
6.4548896193e-195
6.45488961987e-195
6.45488965622e-195
6.45489195932e-195
6.45503176169e-195
6.46377246947e-195
6.6340072244e-195
8.94844246167e-47
8.40471303504e-08
0.00212682815754
0.049550296794
0.0904803137743
0.113450592152
0.12391257679
0.128164098039
0.129899200069
0.130930659328
0.131824316973
0.132691695886
0.133530340929
0.134389171888
0.135244685206
0.136101171574
0.136936427977
0.137794516761
0.13865469461
0.13951392661
0.140350529384
0.141207697396
0.142061983369
0.142908952073
0.143724803331
0.144555797037
0.145369757822
0.146166897412
0.146913553225
0.147659341194
0.148377363298
0.149060105355
0.149705030156
0.150278992134
0.150829711543
0.151329615368
0.151774063143
0.152161831091
0.152488940393
0.152752897534
0.152953192089
0.153061581311
0.153164764233
6.45488961921e-195
6.45488961921e-195
6.45488961921e-195
6.45488961921e-195
6.45488961921e-195
6.45488961921e-195
6.45488961922e-195
6.45488961922e-195
6.45488961922e-195
6.45488961922e-195
6.45488961922e-195
6.45488961922e-195
6.45488961922e-195
6.45488961923e-195
6.45488961923e-195
6.45488961923e-195
6.45488961923e-195
6.45488961923e-195
6.45488961923e-195
6.45488961923e-195
6.45488961925e-195
6.4548896203e-195
6.45488968701e-195
6.45489391541e-195
6.45514759143e-195
6.47071776306e-195
6.7299186e-195
1.08866381227e-34
1.04924749293e-06
0.00708807455363
0.0548162415353
0.092384477327
0.112771818236
0.121851778943
0.125522976141
0.127137607596
0.128205356745
0.129169034801
0.130085115303
0.131014265634
0.131936054363
0.132854308703
0.133749311606
0.134663408671
0.135577087166
0.136465654535
0.137374594486
0.138279776865
0.139180382064
0.140051394242
0.140939242715
0.141814827584
0.142654144518
0.14350007968
0.144326428033
0.145128145482
0.145875104766
0.146616976186
0.147321079002
0.147983420795
0.148600680482
0.149141807504
0.149655382579
0.150111227615
0.150508247162
0.15084333019
0.151115122274
0.151321120677
0.151460663512
0.151563379289
6.45488961916e-195
6.45488961916e-195
6.45488961916e-195
6.45488961916e-195
6.45488961917e-195
6.45488961917e-195
6.45488961917e-195
6.45488961917e-195
6.45488961917e-195
6.45488961917e-195
6.45488961917e-195
6.45488961918e-195
6.45488961918e-195
6.45488961918e-195
6.45488961918e-195
6.45488961918e-195
6.45488961918e-195
6.45488961918e-195
6.45488961918e-195
6.45488961919e-195
6.45488961922e-195
6.45488962119e-195
6.45488974594e-195
6.45489757709e-195
6.45536121537e-195
6.48309120085e-195
6.87532212849e-195
8.0916652805e-26
4.47376666196e-06
0.0129948946035
0.0596715718711
0.0937379920016
0.111674463217
0.119555561158
0.122760164799
0.124283370406
0.125383855955
0.126387901609
0.127394376525
0.12839014399
0.129356648431
0.130337082503
0.131314269093
0.132265331639
0.133232761967
0.134196678164
0.135156278518
0.136087129868
0.137032253678
0.137970640703
0.138872818636
0.139785729714
0.140683268078
0.141535955403
0.142392371735
0.143222012149
0.14401977707
0.14475833853
0.145483005195
0.146165725549
0.146800954386
0.147384783631
0.147885065907
0.148354027976
0.148760850024
0.149105171759
0.149383357525
0.149594128476
0.149737649806
0.149841705514
6.45488961912e-195
6.45488961912e-195
6.45488961912e-195
6.45488961912e-195
6.45488961912e-195
6.45488961912e-195
6.45488961913e-195
6.45488961913e-195
6.45488961913e-195
6.45488961913e-195
6.45488961913e-195
6.45488961913e-195
6.45488961913e-195
6.45488961914e-195
6.45488961914e-195
6.45488961914e-195
6.45488961914e-195
6.45488961914e-195
6.45488961914e-195
6.45488961914e-195
6.4548896192e-195
6.45488962295e-195
6.45488985397e-195
6.45490394569e-195
6.45571394846e-195
6.50191706731e-195
2.0564200926e-74
7.7226947068e-19
1.47969196076e-05
0.0193688090436
0.0641449080266
0.0947708615248
0.110155758612
0.116998386534
0.119853926411
0.121314996766
0.122441945576
0.123532088832
0.124607534665
0.12565067291
0.126705832613
0.127752976739
0.128769194993
0.1297988167
0.130823781366
0.131818019203
0.132826032489
0.133827203937
0.134794100185
0.135773484568
0.136741531404
0.13766711109
0.138600197227
0.139510184593
0.140369391342
0.141225605301
0.142050014764
0.142836053747
0.143555767341
0.144258025039
0.14490936444
0.145507249338
0.146048901214
0.146502881268
0.146920274739
0.147271752915
0.147556833157
0.147773893348
0.147921641475
0.148026411376
6.45488961908e-195
6.45488961908e-195
6.45488961908e-195
6.45488961908e-195
6.45488961909e-195
6.45488961909e-195
6.45488961909e-195
6.45488961909e-195
6.45488961909e-195
6.45488961909e-195
6.45488961909e-195
6.45488961909e-195
6.4548896191e-195
6.4548896191e-195
6.4548896191e-195
6.4548896191e-195
6.4548896191e-195
6.4548896191e-195
6.4548896191e-195
6.45488961911e-195
6.45488961922e-195
6.45488962623e-195
6.45489006815e-195
6.45491794032e-195
6.45664000814e-195
6.52463649421e-195
3.21164679873e-73
8.25344835754e-16
4.25511542668e-05
0.0261400343772
0.0682504247971
0.0953683361108
0.10847909554
0.114242805238
0.116783584601
0.118221703342
0.119436740226
0.120599371709
0.121726227853
0.122857690012
0.123956898426
0.125067185814
0.126165704712
0.127233372768
0.128313216578
0.129382711644
0.130418330476
0.131465010352
0.132476311772
0.133497237981
0.134503201238
0.135465730666
0.136433516461
0.137376713347
0.138290980104
0.139149376066
0.139997938698
0.140807586589
0.141548042242
0.142267179731
0.142933354752
0.143546326012
0.144102061752
0.144565718451
0.144993527394
0.145352534829
0.145643584217
0.145865445938
0.14601706041
0.146121383466
6.45488961905e-195
6.45488961905e-195
6.45488961905e-195
6.45488961905e-195
6.45488961905e-195
6.45488961905e-195
6.45488961905e-195
6.45488961906e-195
6.45488961906e-195
6.45488961906e-195
6.45488961906e-195
6.45488961906e-195
6.45488961906e-195
6.45488961906e-195
6.45488961906e-195
6.45488961907e-195
6.45488961907e-195
6.45488961907e-195
6.45488961907e-195
6.45488961907e-195
6.45488961933e-195
6.45488963599e-195
6.45489069406e-195
6.45495476097e-195
6.45881825535e-195
6.55846889051e-195
7.95288146399e-73
2.56931738181e-13
0.00012623191392
0.0331111615304
0.071867610241
0.0954041377621
0.106435926355
0.111400246679
0.113646123221
0.115086803202
0.116366582208
0.117584708557
0.118800614783
0.119979082323
0.121164485147
0.122314085412
0.123473367431
0.12462033871
0.125731081562
0.126853953132
0.127938314107
0.129033108595
0.130111706193
0.131149016958
0.13219440749
0.133217920685
0.134191865736
0.135165417414
0.136111529793
0.136994143984
0.137867225486
0.138700833402
0.139487862273
0.140197857432
0.140881952797
0.141506802494
0.142072553221
0.142546282543
0.142983650104
0.143351915003
0.143650397791
0.14387747998
0.144032926877
0.144137387751
6.45488961902e-195
6.45488961902e-195
6.45488961902e-195
6.45488961902e-195
6.45488961902e-195
6.45488961902e-195
6.45488961902e-195
6.45488961903e-195
6.45488961903e-195
6.45488961903e-195
6.45488961903e-195
6.45488961903e-195
6.45488961903e-195
6.45488961903e-195
6.45488961903e-195
6.45488961903e-195
6.45488961904e-195
6.45488961904e-195
6.45488961904e-195
6.45488961905e-195
6.45488961967e-195
6.45488965799e-195
6.45489201768e-195
6.45503060358e-195
6.46334405695e-195
6.63045905921e-195
6.08726601745e-47
2.59723962583e-08
0.000603572457036
0.0400018932571
0.0749446866658
0.0949038191586
0.104197398427
0.108355470746
0.110428758751
0.111895647148
0.113225470148
0.114535969875
0.115802939484
0.117071055487
0.118300759586
0.119534161811
0.120727772836
0.121931187811
0.123093153946
0.124266695667
0.12542121907
0.126537878635
0.127661128251
0.128738811208
0.12982063856
0.130881642489
0.131888387198
0.132891829343
0.133861648012
0.13477032263
0.135667608013
0.136522100119
0.137327128005
0.138051674283
0.138750206656
0.13939096779
0.139969201511
0.140452001443
0.140897406414
0.141272030977
0.141575884846
0.141807998957
0.141967266133
0.142073332975
6.45488961899e-195
6.45488961899e-195
6.45488961899e-195
6.45488961899e-195
6.454889619e-195
6.454889619e-195
6.454889619e-195
6.454889619e-195
6.454889619e-195
6.454889619e-195
6.454889619e-195
6.454889619e-195
6.454889619e-195
6.45488961901e-195
6.45488961901e-195
6.45488961901e-195
6.45488961901e-195
6.45488961901e-195
6.45488961901e-195
6.45488961904e-195
6.4548896205e-195
6.45488971171e-195
6.45489535338e-195
6.45522677358e-195
6.47496206855e-195
6.78867467009e-195
7.72393471587e-32
1.40056420576e-06
0.00557142946299
0.0467281433993
0.0774611910632
0.094106188456
0.101755189414
0.105265831573
0.107174531453
0.108657575862
0.110074051673
0.111435350718
0.112793053357
0.114104750215
0.115415173967
0.116686867185
0.11796229971
0.119196176166
0.120435534253
0.121632839945
0.122834540409
0.12399232398
0.125156991225
0.126272221457
0.127390275821
0.128482081259
0.129521562111
0.130553966778
0.131551424389
0.132484744668
0.133402921261
0.134276753801
0.135070347002
0.135840162834
0.136552003968
0.137202961346
0.137790363422
0.138282767875
0.138736102694
0.139118526832
0.139428538542
0.13966485175
0.139828741713
0.139934337544
6.45488961897e-195
6.45488961897e-195
6.45488961897e-195
6.45488961897e-195
6.45488961897e-195
6.45488961897e-195
6.45488961897e-195
6.45488961897e-195
6.45488961898e-195
6.45488961898e-195
6.45488961898e-195
6.45488961898e-195
6.45488961898e-195
6.45488961898e-195
6.45488961898e-195
6.45488961898e-195
6.45488961898e-195
6.45488961898e-195
6.45488961899e-195
6.45488961905e-195
6.45488962277e-195
6.45488985084e-195
6.45490366553e-195
6.4556937564e-195
6.50043180762e-195
7.07581261267e-195
4.52947971256e-20
9.59217896212e-06
0.013529316517
0.052509309087
0.0792048040205
0.0928022294215
0.0990917398231
0.102067334781
0.103876127378
0.105422935898
0.106886714489
0.108335748287
0.109737573057
0.111112921848
0.112486784672
0.113815211054
0.115143730329
0.116429282429
0.117717200354
0.118961684332
0.120208989999
0.121408099887
0.122609106183
0.123761001069
0.124912416347
0.126037939603
0.127104139167
0.128162949272
0.129184471335
0.130140019843
0.131079136059
0.131969540962
0.132780477178
0.133564353879
0.134288920393
0.134950567744
0.135516733525
0.136046401785
0.136506827228
0.136894403529
0.137210628205
0.13745326093
0.137589962779
0.137696153302
6.45488961894e-195
6.45488961895e-195
6.45488961895e-195
6.45488961895e-195
6.45488961895e-195
6.45488961895e-195
6.45488961895e-195
6.45488961895e-195
6.45488961895e-195
6.45488961895e-195
6.45488961895e-195
6.45488961896e-195
6.45488961896e-195
6.45488961896e-195
6.45488961896e-195
6.45488961896e-195
6.45488961896e-195
6.45488961896e-195
6.45488961897e-195
6.45488961912e-195
6.45488962872e-195
6.45489023323e-195
6.45492786009e-195
6.45722644056e-195
6.53738677757e-195
4.28859872795e-73
2.65074053077e-15
4.21357277076e-05
0.0221046848916
0.0578759619793
0.0800731419804
0.0910808165471
0.0962497291395
0.0988131126152
0.100579267557
0.102163646206
0.103695284941
0.105212574232
0.106678852581
0.108135241521
0.109545333038
0.110926834133
0.112309732815
0.113642527871
0.11497642009
0.11626268342
0.117551044784
0.118789975135
0.120026736126
0.121214269181
0.12239735703
0.123549710803
0.124643133857
0.125726483454
0.126742730221
0.127744616196
0.128700406508
0.129578324152
0.13043183362
0.131228803961
0.131964867507
0.132606089036
0.133212868501
0.133750109431
0.134216650013
0.13461221795
0.134899854084
0.135147913145
0.135319520918
0.135426855065
6.45488961892e-195
6.45488961892e-195
6.45488961893e-195
6.45488961893e-195
6.45488961893e-195
6.45488961893e-195
6.45488961893e-195
6.45488961893e-195
6.45488961893e-195
6.45488961893e-195
6.45488961893e-195
6.45488961894e-195
6.45488961894e-195
6.45488961894e-195
6.45488961894e-195
6.45488961894e-195
6.45488961894e-195
6.45488961894e-195
6.45488961895e-195
6.45488961946e-195
6.45488965131e-195
6.45489160304e-195
6.45500537225e-195
6.46164640894e-195
6.60413656074e-195
1.26755706724e-72
1.4665176667e-10
0.000192296494146
0.0306237657085
0.0619849444698
0.0802035398057
0.0890531135726
0.093209885954
0.0955249885666
0.0972816298289
0.0989242092348
0.100538296405
0.102096323659
0.103622845328
0.105136353361
0.106601910534
0.108037588996
0.109467286952
0.11084518269
0.112222285475
0.11354881896
0.114876096988
0.116147809914
0.117421668927
0.118637533132
0.11985047588
0.121002856621
0.122146348914
0.123252012198
0.124289178641
0.125308612783
0.126279393144
0.127168838019
0.128033913759
0.128841458842
0.129557069193
0.130236896488
0.130849863997
0.131394077035
0.131833168666
0.132233898906
0.1325600826
0.132811180302
0.132987682016
0.133097105029
6.45488961891e-195
6.45488961891e-195
6.45488961891e-195
6.45488961891e-195