/*--------------------------------*- C++ -*----------------------------------*\
| =========                 |                                                 |
| \\      /  F ield         | foam-extend: Open Source CFD                    |
|  \\    /   O peration     | Version:     4.1                                |
|   \\  /    A nd           | Web:         http://www.foam-extend.org         |
|    \\/     M anipulation  |                                                 |
\*---------------------------------------------------------------------------*/
FoamFile
{
    version     2.0;
    format      ascii;
    class       volScalarField;
    location    "0.0003";
    object      p;
}
// * * * * * * * * * * * * * * * * * * * * * * * * * * * * * * * * * * * * * //

dimensions      [1 -1 -2 0 0 0 0];

internalField   nonuniform List<scalar> 
8400
(
66.7281849701
66.7281849702
66.7281849702
66.7281849703
66.7281849704
66.7281849704
66.7281849705
66.7281849705
66.7281849706
66.7281849706
66.7281849706
66.7281849707
66.7281849707
66.7281849708
66.7281849708
66.7281849709
66.7281849709
66.7281849709
66.728184971
66.728184971
66.7281849711
66.7281849711
66.7281849711
66.7281849712
66.7281849727
66.7281850662
66.7281909852
66.7285449891
66.7503217916
67.0920185748
378.118814476
2624.72360524
13015.5379329
40758.7497645
95128.2538095
168704.039747
231017.157575
262738.232435
272588.765974
274662.931924
274870.390908
274710.063572
274502.052273
274305.602568
274120.207825
273952.288414
273778.636797
273642.689929
273514.254857
273400.041398
273299.884106
273217.01159
273123.848632
273065.526306
273016.981483
272986.084791
272965.330024
272954.25683
272919.176838
272907.839695
272904.027888
272913.03934
272938.864293
272975.018797
273017.273444
273055.228759
273094.643334
273118.47922
273171.12624
274284.031492
66.7281849595
66.7281849596
66.7281849596
66.7281849596
66.7281849596
66.7281849596
66.7281849597
66.7281849597
66.7281849597
66.7281849597
66.7281849597
66.7281849598
66.7281849598
66.7281849598
66.7281849598
66.7281849598
66.7281849598
66.7281849599
66.7281849599
66.7281849599
66.7281849599
66.7281849599
66.7281849599
66.7281849601
66.7281849677
66.7281854609
66.7282170768
66.7302070589
66.807684104
87.995802226
932.141776721
4769.74721111
22821.2838411
61974.0077387
128295.524104
202081.017173
252118.590071
272253.365528
277724.038287
279165.016995
279788.439017
280253.733761
280677.902532
281081.520241
281466.248509
281833.545355
282184.120517
282518.747609
282837.674879
283140.493225
283432.820075
283711.058433
283976.836013
284237.573328
284463.448125
284701.035403
284912.526504
285103.212873
285273.925389
285431.044358
285581.358388
285725.989302
285867.252946
285971.77957
286083.061746
286171.322825
286249.28241
286319.819426
286386.297772
287215.659719
66.7281849557
66.7281849557
66.7281849557
66.7281849557
66.7281849557
66.7281849558
66.7281849558
66.7281849558
66.7281849558
66.7281849558
66.7281849558
66.7281849558
66.7281849558
66.7281849558
66.7281849559
66.7281849559
66.7281849559
66.7281849559
66.7281849559
66.7281849559
66.7281849559
66.7281849559
66.728184956
66.7281849567
66.7281850059
66.728188193
66.7283846065
66.7407883006
66.970933583
244.390386005
2160.99762219
10555.745557
35922.9822837
87267.9964437
161026.643603
228088.326136
264286.592051
276135.94662
279176.007458
280167.023355
280761.714428
281264.274997
281727.812328
282161.537697
282568.349547
282950.033187
283309.243936
283644.068137
283955.567886
284249.506524
284527.487695
284793.62634
285046.741566
285281.66921
285504.849791
285684.742757
285871.803839
286036.851627
286187.202091
286322.358893
286442.099983
286550.801855
286657.020203
286769.697743
286847.461458
286933.095574
286992.502601
287037.835563
287075.630166
287723.712323
66.7281849538
66.7281849538
66.7281849538
66.7281849538
66.7281849539
66.7281849539
66.7281849539
66.7281849539
66.7281849539
66.7281849539
66.7281849539
66.7281849539
66.7281849539
66.7281849539
66.7281849539
66.7281849539
66.728184954
66.728184954
66.728184954
66.728184954
66.728184954
66.728184954
66.728184954
66.7281849571
66.7281851465
66.7281970034
66.7288965284
66.7709290172
67.3270363363
630.237275787
3372.34522465
16904.9145278
49561.3785682
110170.323224
185707.125068
243727.898973
269761.415803
277203.114798
279104.573082
279869.916655
280408.004855
280881.952245
281320.201339
281726.331408
282104.471402
282456.852279
282786.631186
283090.168321
283369.606398
283629.623755
283871.333966
284098.133723
284316.058087
284491.886085
284673.711838
284829.368133
284972.711002
285106.135333
285231.914303
285345.684347
285448.889856
285514.49961
285598.581589
285676.812391
285752.290934
285817.843472
285865.366056
285896.088849
285917.67917
286476.133627
66.7281849527
66.7281849528
66.7281849528
66.7281849528
66.7281849528
66.7281849528
66.7281849528
66.7281849528
66.7281849528
66.7281849528
66.7281849528
66.7281849528
66.7281849528
66.7281849528
66.7281849528
66.7281849528
66.7281849528
66.7281849529
66.7281849529
66.7281849529
66.7281849529
66.7281849529
66.728184953
66.7281849602
66.7281854328
66.728215956
66.7301499976
66.8073022698
87.8160982257
931.41749176
4775.92565184
22897.9884746
62288.889371
129054.600964
203062.215689
252568.967749
271936.167437
277002.17345
278367.911566
279008.570281
279496.512854
279932.200427
280333.334903
280706.871428
281053.540122
281374.396132
281668.997997
281941.077654
282189.002082
282418.645839
282634.81514
282812.640697
282999.735587
283166.793521
283318.959433
283452.00011
283569.706697
283680.91998
283795.376314
283879.738837
283971.68819
284043.579019
284105.584146
284163.632577
284218.554136
284264.476713
284299.30084
284323.852053
284344.87585
284869.898818
66.7281849521
66.7281849521
66.7281849521
66.7281849521
66.7281849521
66.7281849521
66.7281849521
66.7281849521
66.7281849521
66.7281849521
66.7281849521
66.7281849521
66.7281849521
66.7281849521
66.7281849521
66.7281849521
66.7281849522
66.7281849522
66.7281849522
66.7281849522
66.7281849522
66.7281849522
66.7281849525
66.7281849718
66.7281862153
66.7282626061
66.7330133575
66.8513417106
130.866096621
1258.64164454
6551.23279495
28698.2688386
73784.4950715
144318.354273
215203.929145
257570.310916
272433.969351
276122.061955
277182.540637
277741.542294
278192.412069
278600.323304
278975.743664
279317.994645
279631.21991
279919.139462
280181.494656
280420.057787
280647.80045
280835.513167
281032.516953
281204.786809
281360.417408
281500.340545
281628.325274
281753.55297
281845.427209
281949.094071
282037.194262
282116.511581
282189.626825
282259.121113
282323.731347
282375.66995
282420.30979
282430.827759
282460.649407
282482.691357
282506.928499
283014.806212
66.7281849516
66.7281849516
66.7281849516
66.7281849516
66.7281849516
66.7281849516
66.7281849516
66.7281849516
66.7281849516
66.7281849516
66.7281849516
66.7281849517
66.7281849517
66.7281849517
66.7281849517
66.7281849517
66.7281849517
66.7281849517
66.7281849517
66.7281849517
66.7281849517
66.7281849517
66.7281849523
66.7281849914
66.7281875033
66.7283420736
66.7382182031
66.9371061253
213.694623968
1994.93104016
9605.73231345
34210.4243319
84051.2503981
156737.557788
223785.144015
260225.95638
271958.289546
274810.995706
275680.023328
276175.623818
276585.507473
276958.479168
277295.894224
277600.851694
277880.35878
278139.965926
278385.351539
278583.737075
278785.321776
278967.037767
279132.603061
279283.803163
279420.994647
279552.473635
279648.607938
279757.035044
279848.073713
279929.789719
280002.966457
280070.872463
280141.290558
280180.298566
280238.995364
280279.089484
280308.936118
280332.297859
280350.882225
280366.556998
280380.078691
280853.327111
66.7281849513
66.7281849513
66.7281849513
66.7281849513
66.7281849513
66.7281849513
66.7281849513
66.7281849513
66.7281849513
66.7281849513
66.7281849513
66.7281849513
66.7281849513
66.7281849513
66.7281849513
66.7281849513
66.7281849513
66.7281849513
66.7281849513
66.7281849513
66.7281849513
66.7281849514
66.7281849525
66.7281850289
66.7281899417
66.7284881715
66.7470894722
67.0571590786
336.750174359
2511.43050329
12370.4522626
39661.2569571
93445.1986287
167139.227325
230005.673151
261434.931449
270856.349467
273108.621347
273838.084324
274287.614509
274664.383922
275003.656764
275306.251957
275585.619244
275816.589563
276051.226545
276262.719723
276455.406764
276631.727739
276790.81656
276936.337974
277074.996921
277179.112377
277295.783211
277392.711184
277480.979513
277562.321576
277629.519031
277693.538223
277725.650838
277778.095546
277814.25616
277845.058316
277873.124285
277898.94527
277918.656223
277930.933677
277935.490335
277935.040926
278374.744932
66.728184951
66.728184951
66.728184951
66.728184951
66.728184951
66.728184951
66.728184951
66.728184951
66.728184951
66.728184951
66.728184951
66.728184951
66.728184951
66.7281849511
66.7281849511
66.7281849511
66.7281849511
66.7281849511
66.7281849511
66.7281849511
66.7281849511
66.7281849511
66.7281849532
66.7281850872
66.728193608
66.7287044555
66.759929987
67.2083265062
501.849891906
2993.98161339
14901.2537773
45021.319077
102210.909827
175942.489536
234547.71944
261699.548985
269328.055872
271108.447308
271712.616609
272104.330949
272439.68713
272747.091248
272999.155836
273248.828128
273468.693442
273672.568186
273858.62922
274029.502328
274183.660476
274326.181762
274435.703413
274552.65736
274652.869366
274739.190354
274816.406398
274894.513059
274943.817064
275006.513243
275050.510109
275081.782219
275103.262847
275120.951697
275145.39912
275143.762073
275161.955312
275168.147084
275168.42589
275164.036838
275157.311319
275576.477375
66.7281849508
66.7281849508
66.7281849508
66.7281849508
66.7281849508
66.7281849508
66.7281849508
66.7281849508
66.7281849508
66.7281849508
66.7281849508
66.7281849508
66.7281849508
66.7281849508
66.7281849508
66.7281849509
66.7281849509
66.7281849509
66.7281849509
66.7281849509
66.7281849509
66.7281849509
66.7281849544
66.7281851721
66.7281987568
66.728997662
66.7764684502
67.3947960452
681.698809212
3521.0755563
17451.1718635
50422.7829373
110442.85074
183609.938585
237942.560803
261161.350458
267374.638
268806.979839
269314.957934
269652.988809
269948.014827
270190.060867
270425.662876
270632.995407
270820.904208
270997.788533
271159.276372
271312.990168
271425.220147
271546.858816
271650.445378
271743.17796
271822.950788
271895.143754
271936.645015
271997.043246
272043.351646
272080.06872
272104.081092
272122.987836
272114.115998
272124.658482
272127.112533
272128.633308
272123.771721
272114.524286
272102.322296
272087.69083
272071.466312
272466.659111
66.7281849506
66.7281849506
66.7281849506
66.7281849507
66.7281849507
66.7281849507
66.7281849507
66.7281849507
66.7281849507
66.7281849507
66.7281849507
66.7281849507
66.7281849507
66.7281849507
66.7281849507
66.7281849507
66.7281849507
66.7281849507
66.7281849507
66.7281849507
66.7281849507
66.7281849508
66.7281849561
66.7281852851
66.728205306
66.7293805191
66.7947796489
74.9958535889
822.299022756
4148.19402382
20127.147157
56057.3043568
118498.776267
190287.258737
240158.916675
260040.755223
265085.042766
266222.547711
266644.852329
266914.880937
267165.713797
267383.137743
267571.376642
267739.062705
267892.024781
268040.411911
268156.392495
268283.962958
268388.432041
268480.882321
268567.572161
268622.32893
268688.024521
268732.114323
268768.47124
268797.57162
268826.924744
268825.697038
268836.044201
268832.023286
268820.868153
268807.836836
268801.988145
268769.840066
268760.806274
268740.52811
268717.647614
268693.589807
268668.659498
269039.768061
66.7281849505
66.7281849505
66.7281849505
66.7281849505
66.7281849505
66.7281849505
66.7281849505
66.7281849505
66.7281849505
66.7281849505
66.7281849505
66.7281849505
66.7281849505
66.7281849505
66.7281849505
66.7281849505
66.7281849505
66.7281849506
66.7281849506
66.7281849506
66.7281849506
66.7281849507
66.7281849591
66.7281855079
66.7282207862
66.7304453488
66.8145820195
91.7367526257
959.037231603
4884.55261087
23052.8796067
61899.2248856
126440.795276
196228.75036
241620.11285
258449.933995
262460.681837
263397.807493
263711.522748
263937.085663
264128.319421
264295.358893
264442.657493
264578.669139
264682.311567
264796.339034
264893.253448
264979.271064
265061.233882
265111.456109
265176.084922
265220.448891
265254.326388
265284.390037
265286.410428
265302.389112
265301.145718
265289.635332
265282.443544
265247.274774
265230.104915
265201.225538
265170.269755
265141.207739
265112.843143
265081.52285
265045.35238
265005.78143
264966.364752
265305.019584
66.7281849504
66.7281849504
66.7281849504
66.7281849504
66.7281849504
66.7281849504
66.7281849504
66.7281849504
66.7281849504
66.7281849504
66.7281849504
66.7281849504
66.7281849504
66.7281849504
66.7281849504
66.7281849504
66.7281849504
66.7281849504
66.7281849504
66.7281849504
66.7281849504
66.7281849507
66.7281849662
66.7281859771
66.7282487234
66.732133883
66.8410522621
116.670784352
1135.00324642
5838.42309205
26283.4721973
68072.8084589
134250.382591
201583.873093
242350.023383
256417.305559
259575.445788
260270.92087
260522.545838
260692.521043
260830.990228
260955.977049
261045.292327
261143.010233
261224.092175
261293.986639
261359.834612
261393.972519
261443.766947
261477.956711
261506.378917
261527.715807
261518.793441
261525.227626
261519.142467
261513.032523
261474.378641
261450.025783
261417.900476
261383.380837
261346.314752
261311.888391
261248.805355
261207.952414
261160.267842
261112.262025
261062.649942
261010.903546
260958.562902
261264.893623
66.7281849503
66.7281849503
66.7281849503
66.7281849503
66.7281849503
66.7281849503
66.7281849503
66.7281849503
66.7281849503
66.7281849503
66.7281849503
66.7281849503
66.7281849503
66.7281849503
66.7281849503
66.7281849503
66.7281849503
66.7281849503
66.7281849503
66.7281849503
66.7281849504
66.7281849508
66.7281849783
66.7281867268
66.7282925643
66.7347821374
66.881363143
155.109867308
1470.39706092
7137.79355835
29925.8484902
74678.3544876
142072.949875
206384.53882
242437.463966
253970.918577
256410.708434
256922.254732
257096.795016
257206.465595
257298.896891
257354.308276
257415.910346
257463.066749
257503.720824
257519.032957
257547.620129
257560.716142
257573.204951
257556.895587
257556.809194
257544.464759
257523.611993
257504.258199
257455.269377
257423.115424
257375.230984
257333.127544
257269.44476
257230.398169
257180.230341
257122.390079
257057.356663
256991.296667
256933.963385
256855.736894
256798.677252
256732.973672
256667.048462
256939.73278
66.7281849502
66.7281849502
66.7281849502
66.7281849502
66.7281849502
66.7281849502
66.7281849502
66.7281849502
66.7281849502
66.7281849502
66.7281849502
66.7281849502
66.7281849502
66.7281849502
66.7281849502
66.7281849503
66.7281849503
66.7281849503
66.7281849503
66.7281849503
66.7281849503
66.728184951
66.7281849987
66.7281880205
66.7283714459
66.739839551
66.963193323
227.975789809
2066.99680678
9536.73968605
34011.8708626
81894.8713234
149784.859165
210493.448546
241890.888128
251136.24151
252985.672704
253338.199931
253439.737863
253470.852945
253504.808383
253520.443188
253531.395962
253518.343948
253519.002701
253510.589826
253496.002455
253456.24686
253429.393182
253392.897276
253354.504377
253292.671901
253253.653037
253201.535036
253146.914311
253055.668696
252985.329532
252921.604788
252869.896224
252821.681383
252734.816094
252655.06484
252568.844858
252490.980041
252420.978795
252349.581585
252271.333756
252194.196306
252094.466443
252337.162516
66.7281849502
66.7281849502
66.7281849502
66.7281849502
66.7281849502
66.7281849502
66.7281849502
66.7281849502
66.7281849502
66.7281849502
66.7281849502
66.7281849502
66.7281849502
66.7281849502
66.7281849502
66.7281849502
66.7281849502
66.7281849502
66.7281849502
66.7281849502
66.7281849502
66.7281849516
66.7281850391
66.7281905869
66.7285234185
66.7489520117
67.0890323007
353.613130052
2552.95452785
12231.3837664
38782.4416806
89672.9775744
157654.800648
214020.686301
240716.739742
247938.355286
249274.66035
249502.057447
249518.58545
249516.222603
249490.811665
249459.394476
249402.244347
249360.936243
249315.677563
249243.974604
249186.951259
249119.934016
249052.73912
248960.686359
248887.360191
248810.938181
248714.655368
248636.764579
248550.386167
248463.203837
248349.047798
248264.049089
248182.222652
248105.468445
248030.449372
247924.907227
247834.353751
247737.613875
247645.258375
247555.551649
247466.174609
247374.048612
247280.555837
247480.447779
66.7281849501
66.7281849501
66.7281849501
66.7281849501
66.7281849501
66.7281849501
66.7281849501
66.7281849501
66.7281849501
66.7281849501
66.7281849501
66.7281849501
66.7281849501
66.7281849501
66.7281849501
66.7281849501
66.7281849501
66.7281849501
66.7281849501
66.7281849501
66.7281849502
66.7281849528
66.7281851164
66.7281953912
66.7288037003
66.7651863817
67.2798066615
543.456032863
3082.78150281
14950.2039236
44262.9180708
98083.2995732
165413.859652
216835.256181
238983.458682
244442.797204
245346.193016
245421.934711
245386.255573
245320.4892
245223.83332
245137.142021
245049.025899
244941.617684
244850.719616
244753.127429
244654.389518
244531.208875
244423.999124
244316.517528
244186.694528
244073.239314
243957.659977
243821.730504
243715.663765
243604.40133
243492.672993
243360.770255
243255.990149
243153.660575
243052.85151
242955.271606
242831.388838
242728.879538
242618.999938
242510.512176
242402.133348
242295.836564
242193.146914
242366.5837
66.72818495
66.72818495
66.72818495
66.72818495
66.72818495
66.72818495
66.72818495
66.72818495
66.72818495
66.72818495
66.7281849501
66.7281849501
66.7281849501
66.7281849501
66.7281849501
66.7281849501
66.7281849501
66.7281849501
66.7281849501
66.7281849501
66.7281849501
66.7281849551
66.7281852582
66.728203747
66.7292664981
66.789886557
68.968780236
755.641815693
3775.98622887
18061.5045978
50583.361922
107245.829652
172898.291141
218815.178304
236668.724701
240633.974388
241171.075839
241145.82303
241029.775666
240879.010559
240743.78284
240607.90961
240452.792583
240317.789271
240182.902368
240024.736085
239880.337099
239733.517377
239564.369716
239416.452763
239272.327671
239105.912347
238961.818858
238817.886531
238654.357233
238515.310535
238372.186487
238238.703307
238088.953074
237967.069711
237843.617298
237722.916564
237610.776551
237474.111692
237354.573409
237226.330575
237100.120589
236977.770874
236859.158396
236991.422439
66.72818495
66.72818495
66.72818495
66.72818495
66.72818495
66.72818495
66.72818495
66.72818495
66.72818495
66.72818495
66.72818495
66.72818495
66.72818495
66.72818495
66.72818495
66.72818495
66.72818495
66.72818495
66.72818495
66.72818495
66.7281849502
66.7281849594
66.7281855392
66.7282221084
66.7304815198
66.8196952157
90.8816053889
943.236775522
4699.11896839
21804.4146562
57906.8057558
117046.030827
180101.810901
219952.604484
233803.808379
236508.976624
236771.611725
236639.913126
236436.7021
236246.761318
236034.289533
235844.285734
235656.990872
235456.2164
235275.258853
235093.076612
234887.644234
234697.762472
234483.839697
234301.53887
234119.317619
233915.058887
233743.699099
233567.888777
233392.48465
233203.46765
233039.53899
232883.396247
232712.701573
232564.766222
232414.094874
232272.028906
232144.56327
231992.185472
231856.294884
231709.723628
231567.017535
231429.641707
231294.433418
231380.699494
66.7281849499
66.7281849499
66.7281849499
66.7281849499
66.7281849499
66.7281849499
66.72818495
66.72818495
66.72818495
66.72818495
66.72818495
66.72818495
66.72818495
66.72818495
66.72818495
66.72818495
66.72818495
66.72818495
66.72818495
66.72818495
66.7281849503
66.7281849722
66.7281863604
66.7282704184
66.733339454
66.864084467
128.722857334
1212.04379651
6028.63763957
26363.8982251
66341.6773929
127328.401079
186609.694536
220217.136649
230460.213098
232161.039592
232176.711876
231925.411315
231667.549361
231391.192197
231143.178283
230877.889363
230636.036675
230400.707403
230150.717834
229928.52417
229680.209561
229449.57619
229219.714661
228974.320421
228757.572171
228545.657171
228317.508605
228110.711733
227910.003996
227693.361073
227508.489111
227327.214635
227155.237322
226964.421582
226795.220671
226622.160025
226463.607754
226288.08959
226133.573969
225973.305108
225817.399694
225662.981535
225509.155377
225552.37237
66.7281849499
66.7281849499
66.7281849499
66.7281849499
66.7281849499
66.7281849499
66.7281849499
66.7281849499
66.7281849499
66.7281849499
66.7281849499
66.7281849499
66.7281849499
66.7281849499
66.7281849499
66.7281849499
66.7281849499
66.7281849499
66.7281849499
66.7281849499
66.7281849508
66.728185001
66.728188097
66.7283699264
66.7392774592
66.95853801
213.56819311
1952.9904919
8278.01749375
31907.7066255
75963.407185
137869.622103
192281.668542
219430.83539
226632.05275
227568.9093
227374.320775
227049.12496
226695.625634
226374.688105
226042.064384
225738.441804
225418.793831
225134.513861
224832.562662
224557.100524
224281.752364
223991.850346
223731.573102
223452.710857
223201.337458
222957.94895
222697.083413
222462.053418
222230.214757
221990.78108
221784.562746
221581.573263
221386.133676
221168.988629
220974.986867
220780.216363
220597.393185
220397.192604
220220.27952
220038.246944
219859.22776
219684.791435
219515.579391
219520.554367
66.7281849499
66.7281849499
66.7281849499
66.7281849499
66.7281849499
66.7281849499
66.7281849499
66.7281849499
66.7281849499
66.7281849499
66.7281849499
66.7281849499
66.7281849499
66.7281849499
66.7281849499
66.7281849499
66.7281849499
66.7281849499
66.7281849499
66.7281849499
66.7281849519
66.7281850715
66.7281924736
66.7286273081
66.7545206845
67.1661222574
405.794964
2689.82396149
12391.0365645
38685.8469241
86810.2937662
148488.960115
196772.123567
217696.688821
222380.052
222730.198848
222406.541356
221978.375966
221574.963688
221161.782292
220781.590505
220394.376617
220042.600463
219678.738342
219350.167172
219005.802887
218691.43306
218357.847599
218054.770189
217736.182454
217454.252983
217182.795309
216896.809135
216631.328104
216374.030434
216110.277601
215878.116447
215654.095589
215411.051798
215192.311012
214969.90329
214750.125464
214540.668437
214316.086394
214119.040776
213921.337247
213727.964196
213537.075716
213349.428854
213303.363299
66.7281849498
66.7281849498
66.7281849498
66.7281849498
66.7281849498
66.7281849498
66.7281849498
66.7281849498
66.7281849498
66.7281849498
66.7281849498
66.7281849499
66.7281849499
66.7281849499
66.7281849499
66.7281849499
66.7281849499
66.7281849499
66.7281849499
66.7281849499
66.7281849548
66.7281852541
66.7282033794
66.7292400054
66.7879378459
67.5428569765
719.868469359
3580.00163778
16687.6386734
46847.9908063
98849.002665
158693.809209
199822.478277
214986.172321
217727.247496
217686.024633
217221.875474
216739.231278
216251.708608
215778.451391
215337.965804
214890.29042
214478.475812
214060.040859
213678.507132
213286.221927
212926.902167
212551.406285
212207.961528
211855.269478
211537.889833
211235.937718
210920.844946
210630.892026
210348.426395
210058.710418
209799.768153
209548.484246
209281.725327
209038.627685
208792.241796
208554.599726
208300.576737
208075.902361
207853.546669
207637.072683
207429.019057
207231.265907
207009.578695
206919.231189
66.7281849498
66.7281849498
66.7281849498
66.7281849498
66.7281849498
66.7281849498
66.7281849498
66.7281849498
66.7281849498
66.7281849498
66.7281849498
66.7281849498
66.7281849498
66.7281849498
66.7281849498
66.7281849498
66.7281849498
66.7281849498
66.7281849498
66.72818495
66.7281849626
66.7281857558
66.7282351235
66.731250939
66.8364240199
99.4096820441
994.688470325
4860.50384482
21907.0215581
56802.4555734
111766.105595
167991.942137
201289.149023
211448.023138
212771.635859
212414.710701
211848.950899
211302.08769
210753.0569
210236.525655
209722.954339
209222.8934
208759.652896
208286.621921
207851.680228
207409.287111
207005.724044
206590.967227
206212.29382
205824.638796
205471.105057
205131.724902
204786.263539
204474.008708
204146.951582
203851.1178
203564.427382
203266.02964
202996.337803
202727.945333
202468.66822
202190.267585
201938.193535
201688.776319
201447.814455
201220.567247
200975.777969
200760.882707
200540.636929
200409.404342
66.7281849498
66.7281849498
66.7281849498
66.7281849498
66.7281849498
66.7281849498
66.7281849498
66.7281849498
66.7281849498
66.7281849498
66.7281849498
66.7281849498
66.7281849498
66.7281849498
66.7281849498
66.7281849498
66.7281849498
66.7281849498
66.7281849498
66.7281849505
66.7281849923
66.728187553
66.7283368221
66.7370500874
66.9240019992
172.206864975
1567.46965245
6949.7596142
28517.4861882
68426.0218588
125192.338987
175875.372065
201033.636201
207198.742889
207546.621581
206979.02207
206344.199468
205707.224989
205092.151005
204513.967646
203943.341104
203393.120932
202878.973581
202358.947058
201879.550527
201392.391811
200946.102333
200488.949349
200075.09302
199652.663749
199271.077726
198882.065821
198527.092482
198184.467299
197831.945521
197506.707307
197189.890603
196863.527041
196569.210206
196284.629947
195988.696858
195716.644459
195441.100681
195178.036702
194900.476229
194652.341868
194406.870462
194169.995131
193937.608137
193772.34784
66.7281849498
66.7281849498
66.7281849498
66.7281849498
66.7281849498
66.7281849498
66.7281849498
66.7281849498
66.7281849498
66.7281849498
66.7281849498
66.7281849498
66.7281849498
66.7281849498
66.7281849498
66.7281849498
66.7281849498
66.7281849498
66.7281849498
66.7281849519
66.728185081
66.7281929195
66.7286467475
66.755111746
67.1787920726
390.695430052
2633.16572691
11447.8042422
36852.4442794
81851.6841531
138414.010379
181624.397541
199184.373118
202381.608495
202137.813122
201419.991612
200684.526656
199972.686437
199289.933048
198650.855057
198025.909079
197419.714885
196853.823764
196287.451974
195766.461626
195240.527235
194753.554206
194263.39402
193814.075108
193359.146535
192944.644644
192523.135374
192143.526759
191753.792401
191395.939163
191045.923846
190684.059342
190351.479579
190030.856861
189704.671518
189412.362826
189119.461192
188834.877941
188530.755955
188256.432244
187984.911156
187722.452235
187465.19741
187219.84811
187005.063365
66.7281849497
66.7281849497
66.7281849497
66.7281849497
66.7281849497
66.7281849497
66.7281849497
66.7281849497
66.7281849497
66.7281849497
66.7281849497
66.7281849497
66.7281849497
66.7281849497
66.7281849497
66.7281849498
66.7281849498
66.7281849498
66.7281849499
66.7281849569
66.7281853786
66.7282102592
66.7295955891
66.8044575302
73.7658430851
793.217416771
3846.43583755
17347.8076364
47334.0663355
96773.3034086
150669.441992
184987.610786
195929.330637
197141.666808
196518.372799
195700.660886
194892.629665
194111.076631
193360.707158
192663.448181
191980.824661
191319.868048
190700.947995
190091.208868
189505.149411
188965.014195
188424.95845
187928.014775
187422.941405
186960.065541
186489.868795
186064.803735
185630.63784
185233.057922
184847.186795
184452.812846
184087.150713
183730.304785
183368.604843
183044.633599
182734.505606
182409.233984
182109.135914
181804.967356
181503.618197
181219.22556
180924.853523
180665.000731
180406.715687
180166.405705
66.7281849497
66.7281849497
66.7281849497
66.7281849497
66.7281849497
66.7281849497
66.7281849497
66.7281849497
66.7281849497
66.7281849497
66.7281849497
66.7281849497
66.7281849497
66.7281849497
66.7281849497
66.7281849497
66.7281849497
66.7281849497
66.7281849502
66.7281849779
66.7281866993
66.7282888963
66.7342577552
66.8872454472
133.360619281
1213.05778834
5771.39916376
24510.2305881
60211.3450859
112521.438515
160921.199226
185730.048594
191591.385001
191577.956319
190723.442692
189817.444586
188946.787742
188112.522994
187308.876288
186554.719975
185818.167428
185110.639643
184428.506187
183799.087713
183175.712487
182596.06132
182017.784542
181459.853323
180952.013013
180440.78354
179963.459554
179477.560068
179041.722884
178623.717487
178196.192865
177802.054742
177390.018538
177019.696063
176655.367215
176309.295463
175957.101716
175637.904756
175314.162082
174997.686105
174665.139412
174367.239266
174079.197456
173803.731981
173532.445018
173250.962522
66.7281849497
66.7281849497
66.7281849497
66.7281849497
66.7281849497
66.7281849497
66.7281849497
66.7281849497
66.7281849497
66.7281849497
66.7281849497
66.7281849497
66.7281849497
66.7281849497
66.7281849497
66.7281849497
66.7281849497
66.7281849497
66.7281849517
66.728185066
66.7281918733
66.7285804973
66.7509622599
67.1343992768
331.944624941
2424.2756782
9528.59458562
33849.4137705
75418.8141383
128119.78486
168234.556993
184116.422133
186468.21926
185790.972466
184794.493666
183817.399438
182883.194419
181992.112859
181138.957496
180317.169475
179548.32921
178799.381974
178082.050771
177410.467691
176752.909681
176120.492881
175531.537771
174944.229298
174404.551
173861.177382
173358.714866
172850.647427
172385.310357
171917.005856
171494.91135
171060.210316
170657.875293
170261.825475
169857.884937
169489.719814
169134.932137
168796.379797
168440.774689
168111.93413
167785.335769
167471.486829
167148.557864
166871.85997
166593.333011
166271.872577
66.7281849497
66.7281849497
66.7281849497
66.7281849497
66.7281849497
66.7281849497
66.7281849497
66.7281849497
66.7281849497
66.7281849497
66.7281849497
66.7281849497
66.7281849497
66.7281849497
66.7281849497
66.7281849497
66.7281849497
66.7281849498
66.728184958
66.72818544
66.7282133463
66.7297417283
66.8105693642
75.2617300209
805.816435088
3858.16221769
16884.9048921
45922.4187279
92557.9836809
142025.845486
171985.323133
180524.501782
180833.081921
179834.562226
178758.731155
177717.219124
176725.169237
175775.376844
174872.276733
174010.491084
173182.375306
172406.487541
171648.682218
170925.999809
170229.551722
169590.723941
168953.959048
168362.157424
167770.212968
167225.240965
166675.643907
166169.975956
165658.14892
165190.956622
164716.322951
164280.802843
163860.152815
163431.793511
163036.790058
162652.092595
162257.474761
161899.239347
161548.322242
161212.474962
160861.035796
160542.50431
160226.11215
159919.917077
159621.135686
159265.186336
66.7281849497
66.7281849497