/*--------------------------------*- C++ -*----------------------------------*\
| =========                 |                                                 |
| \\      /  F ield         | foam-extend: Open Source CFD                    |
|  \\    /   O peration     | Version:     4.1                                |
|   \\  /    A nd           | Web:         http://www.foam-extend.org         |
|    \\/     M anipulation  |                                                 |
\*---------------------------------------------------------------------------*/
FoamFile
{
    version     2.0;
    format      ascii;
    class       volScalarField;
    location    "0.0003";
    object      rho;
}
// * * * * * * * * * * * * * * * * * * * * * * * * * * * * * * * * * * * * * //

dimensions      [1 -3 0 0 0 0 0];

internalField   nonuniform List<scalar> 
8400
(
0.00101999409798
0.00101999409798
0.00101999409798
0.00101999409799
0.00101999409799
0.00101999409799
0.00101999409799
0.00101999409799
0.00101999409799
0.00101999409799
0.00101999409799
0.00101999409799
0.00101999409799
0.00101999409799
0.00101999409799
0.00101999409799
0.00101999409799
0.00101999409799
0.001019994098
0.001019994098
0.001019994098
0.001019994098
0.001019994098
0.001019994098
0.00101999409802
0.00101999409944
0.00101999418938
0.00101999955939
0.00102032895587
0.00102540226944
0.00107545524877
0.00133913322075
0.00214320098589
0.00390390104183
0.00690390437558
0.010594788416
0.0135576294904
0.0149980160151
0.0154205258146
0.0154911731232
0.0154778994922
0.0154477738039
0.0154152539264
0.0153829620745
0.0153510181388
0.0153194141812
0.0152879812596
0.0152561511144
0.0152238553774
0.0151912894638
0.015158396933
0.0151254001759
0.0150923654794
0.0150589413486
0.0150253308756
0.0149918957937
0.0149585372422
0.0149254532785
0.0148929924077
0.014861245022
0.0148308733569
0.0148027440162
0.0147771370554
0.0147541578888
0.0147337992096
0.0147161734509
0.014702343398
0.0146930740441
0.0146877525652
0.0147311611888
0.00101999409783
0.00101999409783
0.00101999409783
0.00101999409783
0.00101999409783
0.00101999409783
0.00101999409783
0.00101999409783
0.00101999409783
0.00101999409783
0.00101999409783
0.00101999409784
0.00101999409784
0.00101999409784
0.00101999409784
0.00101999409784
0.00101999409784
0.00101999409784
0.00101999409784
0.00101999409784
0.00101999409784
0.00101999409784
0.00101999409784
0.00101999409784
0.00101999409796
0.0010199941056
0.00101999459383
0.00102002524892
0.00102116173118
0.00103563004075
0.00114736975604
0.00159994803367
0.00278372288738
0.00509811104137
0.00856237621039
0.0121400283192
0.0144541173005
0.0153537052384
0.0155848889083
0.0156343927359
0.0156456088094
0.0156487138795
0.0156490504807
0.0156472916626
0.0156434666505
0.015637584214
0.0156296156498
0.0156195330494
0.0156074283403
0.0155934633953
0.0155777679648
0.0155604472724
0.0155415863866
0.0155216328652
0.0155008128949
0.0154786215169
0.0154550639831
0.0154307077888
0.0154061370099
0.0153819772279
0.0153587531201
0.0153368443611
0.0153167403392
0.0152986132793
0.0152821946518
0.015267937807
0.0152566091681
0.0152485044386
0.0152437622849
0.0152754865321
0.00101999409778
0.00101999409778
0.00101999409778
0.00101999409778
0.00101999409778
0.00101999409778
0.00101999409778
0.00101999409778
0.00101999409778
0.00101999409778
0.00101999409778
0.00101999409778
0.00101999409778
0.00101999409778
0.00101999409778
0.00101999409778
0.00101999409778
0.00101999409778
0.00101999409778
0.00101999409778
0.00101999409778
0.00101999409778
0.00101999409778
0.00101999409779
0.00101999409855
0.00101999414749
0.00101999715245
0.00102018568346
0.00102361202275
0.00106073645179
0.00127908491136
0.00198460773456
0.00359348340748
0.00644789801866
0.0101553737873
0.0133305860017
0.0149776219137
0.0154979964734
0.0156195285018
0.0156496953143
0.0156609995349
0.0156668815222
0.0156696458109
0.0156697124825
0.01566718902
0.0156620735613
0.0156543513892
0.0156441203818
0.0156315818401
0.0156170202611
0.015600722519
0.0155827989634
0.0155632680451
0.0155421922442
0.0155200032234
0.0154970146735
0.0154730546825
0.0154485112366
0.0154239693349
0.0153996926116
0.0153761860357
0.0153541508217
0.0153340682997
0.0153163648676
0.0153010237912
0.0152875305919
0.0152762213537
0.0152677630071
0.01526243646
0.0152869304536
0.00101999409775
0.00101999409775
0.00101999409775
0.00101999409775
0.00101999409775
0.00101999409775
0.00101999409775
0.00101999409775
0.00101999409775
0.00101999409775
0.00101999409775
0.00101999409775
0.00101999409775
0.00101999409775
0.00101999409775
0.00101999409775
0.00101999409775
0.00101999409775
0.00101999409775
0.00101999409775
0.00101999409775
0.00101999409775
0.00101999409775
0.0010199940978
0.00101999410065
0.0010199942789
0.00102000477065
0.0010206326197
0.00102885122488
0.00110083901245
0.00143658405287
0.00239471104311
0.00439628342371
0.00763832330516
0.0113504235172
0.0140559723358
0.0152283754153
0.0155478880926
0.0156190382272
0.0156380542944
0.0156456515247
0.0156490447011
0.0156494331879
0.015647061323
0.0156420568209
0.015634480193
0.015624356451
0.0156117856206
0.0155969441056
0.0155800776381
0.015561432206
0.0155411260064
0.0155195356852
0.0154968240871
0.0154726282179
0.0154473047912
0.0154216720627
0.0153962202415
0.0153711399179
0.0153464659869
0.0153227946397
0.0153007960574
0.015280550996
0.0152623845314
0.015246540622
0.0152328594967
0.0152214292322
0.0152126166911
0.0152069280865
0.0152279936491
0.00101999409774
0.00101999409774
0.00101999409774
0.00101999409774
0.00101999409774
0.00101999409774
0.00101999409774
0.00101999409774
0.00101999409774
0.00101999409774
0.00101999409774
0.00101999409774
0.00101999409774
0.00101999409774
0.00101999409774
0.00101999409774
0.00101999409774
0.00101999409774
0.00101999409774
0.00101999409774
0.00101999409774
0.00101999409774
0.00101999409774
0.00101999409785
0.00101999410518
0.00101999457728
0.00102002442699
0.00102115696863
0.00103559960545
0.0011474892696
0.00160164029888
0.00279179965995
0.00512195200927
0.00861125273275
0.0122018022612
0.0144934123158
0.0153559493772
0.0155672450608
0.0156122457301
0.015623692168
0.015627001673
0.0156266710029
0.0156235554398
0.0156178169061
0.0156095519902
0.0155988313051
0.0155856823809
0.0155702119231
0.0155526202497
0.0155330795246
0.0155120316803
0.0154897465888
0.0154659866072
0.0154408898582
0.0154147469803
0.015387836123
0.0153607973424
0.0153342789545
0.0153088357095
0.015284401232
0.0152604353397
0.015237421092
0.0152163702351
0.0151976737388
0.0151812936161
0.0151671627005
0.0151554684711
0.0151466134333
0.0151410022058
0.0151605426976
0.00101999409773
0.00101999409773
0.00101999409773
0.00101999409773
0.00101999409773
0.00101999409773
0.00101999409773
0.00101999409773
0.00101999409773
0.00101999409773
0.00101999409773
0.00101999409773
0.00101999409773
0.00101999409773
0.00101999409773
0.00101999409773
0.00101999409773
0.00101999409773
0.00101999409773
0.00101999409773
0.00101999409773
0.00101999409773
0.00101999409773
0.00101999409803
0.00101999411699
0.00101999527816
0.00102006741104
0.00102181607467
0.00104412128527
0.00120009342616
0.00176890091751
0.00316574853081
0.00576442156359
0.00939993132018
0.0128166317906
0.0147709961669
0.0154283860989
0.015575501463
0.0156035829544
0.0156083837812
0.0156073423117
0.0156033129399
0.0155966467191
0.0155874003372
0.0155756373807
0.0155614340335
0.0155449440924
0.0155263481253
0.0155061153709
0.0154844734056
0.0154610214186
0.0154358655631
0.0154094972291
0.0153822516326
0.0153544106139
0.0153265020728
0.0152988954206
0.0152713554329
0.0152441604905
0.0152180024033
0.0151933127693
0.0151703274295
0.0151490970754
0.0151297168211
0.0151127577652
0.0150986216275
0.0150871104583
0.0150784228577
0.0150728362521
0.015091154752
0.00101999409772
0.00101999409772
0.00101999409772
0.00101999409772
0.00101999409772
0.00101999409772
0.00101999409772
0.00101999409772
0.00101999409772
0.00101999409772
0.00101999409772
0.00101999409772
0.00101999409772
0.00101999409772
0.00101999409772
0.00101999409772
0.00101999409772
0.00101999409772
0.00101999409772
0.00101999409772
0.00101999409772
0.00101999409772
0.00101999409773
0.00101999409833
0.00101999413688
0.00101999652011
0.00102014899312
0.00102313828867
0.00105671609241
0.00126236369404
0.00194281072614
0.00351572406542
0.00633688532223
0.0100523243181
0.0132767516677
0.0149543098936
0.0154689328003
0.0155758400302
0.0155930465685
0.0155924799557
0.01558694808
0.0155786508991
0.0155678728957
0.015554629052
0.0155390718816
0.0155214159595
0.0155020111341
0.0154809423593
0.0154578342216
0.0154328748995
0.0154065417047
0.0153790331809
0.0153505611415
0.0153216507446
0.0152925753252
0.0152630246329
0.0152332963251
0.0152040659041
0.0151757180519
0.0151485676677
0.0151232234281
0.0150999105208
0.0150781196602
0.0150580567631
0.0150403555174
0.0150253299978
0.0150132051872
0.0150040663062
0.0149979670068
0.0150149917861
0.00101999409771
0.00101999409771
0.00101999409771
0.00101999409771
0.00101999409771
0.00101999409771
0.00101999409771
0.00101999409771
0.00101999409771
0.00101999409771
0.00101999409771
0.00101999409771
0.00101999409771
0.00101999409771
0.00101999409772
0.00101999409772
0.00101999409772
0.00101999409772
0.00101999409772
0.00101999409772
0.00101999409772
0.00101999409772
0.00101999409773
0.0010199940989
0.00101999417393
0.00101999872307
0.00102028199963
0.00102490554355
0.00107188982622
0.0013264785684
0.00211357174827
0.00385793173459
0.00686549645586
0.0106124766011
0.0136373901708
0.0150834456117
0.0154917658261
0.0155695153461
0.0155778735595
0.0155724481449
0.0155627278371
0.0155502534279
0.0155353105595
0.0155183054214
0.0154994936315
0.0154785581524
0.0154555798648
0.0154308890168
0.0154045766368
0.0153768341028
0.0153479124662
0.0153183186997
0.015288236385
0.0152573112093
0.0152258554191
0.0151944686294
0.0151633135483
0.0151324833823
0.0151027938529
0.0150749101155
0.0150482977805
0.0150229961685
0.0149997708419
0.0149790130446
0.0149608587249
0.0149453673774
0.0149326337188
0.0149227882773
0.0149160222936
0.0149317324677
0.00101999409771
0.00101999409771
0.00101999409771
0.00101999409771
0.00101999409771
0.00101999409771
0.00101999409771
0.00101999409771
0.00101999409771
0.00101999409771
0.00101999409771
0.00101999409771
0.00101999409771
0.00101999409771
0.00101999409771
0.00101999409771
0.00101999409771
0.00101999409771
0.00101999409771
0.00101999409771
0.00101999409771
0.00101999409771
0.00101999409774
0.00101999409979
0.00101999422938
0.00102000197439
0.0010204736813
0.00102714030688
0.00108890595268
0.00139293836816
0.00228644700816
0.00419587549614
0.00736485064794
0.0111094921934
0.0139317195558
0.0151780245504
0.0155038348731
0.0155591909695
0.01555928588
0.0155483111123
0.0155337608614
0.0155170433692
0.0154983602463
0.0154773568244
0.0154542485406
0.0154295137567
0.0154032414392
0.015375418858
0.0153461100709
0.0153157512149
0.0152846024603
0.0152523665278
0.0152192003881
0.0151856405569
0.0151520524038
0.0151190580874
0.0150868871159
0.0150550147733
0.0150235817298
0.0149933144293
0.0149647117795
0.0149381516483
0.0149142436644
0.0148931894005
0.014874439181
0.0148580955315
0.0148446731697
0.0148343153335
0.0148271090721
0.0148418337184
0.00101999409771
0.00101999409771
0.00101999409771
0.00101999409771
0.00101999409771
0.00101999409771
0.00101999409771
0.00101999409771
0.00101999409771
0.00101999409771
0.00101999409771
0.00101999409771
0.00101999409771
0.00101999409771
0.00101999409771
0.00101999409771
0.00101999409771
0.00101999409771
0.00101999409771
0.00101999409771
0.00101999409771
0.00101999409771
0.00101999409776
0.00101999410106
0.00101999430601
0.00102000631893
0.00102071766557
0.0010298785819
0.001108215115
0.00146456717634
0.00246653588469
0.00453731286602
0.00784769146745
0.0115610851123
0.0141791008713
0.0152499190348
0.0155076903099
0.0155438243413
0.0155363972591
0.0155199593575
0.0155005810515
0.0154792183224
0.0154556063591
0.0154299382146
0.0154027615647
0.0153742895763
0.0153445112594
0.0153136029754
0.0152816448744
0.0152483170255
0.015213847539
0.0151786876275
0.0151429903352
0.0151073157621
0.0150720871867
0.0150370791566
0.0150023874891
0.0149683358611
0.0149351892152
0.0149036608089
0.0148742214979
0.0148467561976
0.0148215214255
0.0147988356967
0.0147787571018
0.0147614997461
0.0147473027658
0.0147363058624
0.0147285962945
0.0147423330586
0.00101999409771
0.00101999409771
0.00101999409771
0.00101999409771
0.00101999409771
0.00101999409771
0.00101999409771
0.00101999409771
0.00101999409771
0.00101999409771
0.00101999409771
0.00101999409771
0.00101999409771
0.00101999409771
0.00101999409771
0.00101999409771
0.00101999409771
0.00101999409771
0.00101999409771
0.00101999409771
0.00101999409771
0.00101999409771
0.00101999409779
0.00101999410273
0.00101999440483
0.00102001264685
0.00102097813572
0.00103307077894
0.00113031917945
0.00154370019638
0.00265840128597
0.00489022472697
0.00832404223528
0.0119798090782
0.0143915778788
0.015304436992
0.0155049468501
0.0155240078556
0.0155088186016
0.0154869313673
0.0154622917797
0.015435436393
0.0154067239208
0.0153764048827
0.0153448004255
0.0153123904757
0.0152792169865
0.0152447094061
0.0152089003501
0.0151722195876
0.0151351537659
0.0150978205496
0.0150597704965
0.0150212774018
0.0149830160912
0.0149453414154
0.0149087268068
0.0148732911973
0.0148386774737
0.0148052794007
0.0147738420778
0.0147447096685
0.0147184501102
0.0146952402612
0.0146745439271
0.0146565011191
0.0146416058483
0.0146299916065
0.0146217621955
0.0146344825734
0.0010199940977
0.0010199940977
0.0010199940977
0.0010199940977
0.0010199940977
0.0010199940977
0.0010199940977
0.0010199940977
0.0010199940977
0.0010199940977
0.0010199940977
0.0010199940977
0.0010199940977
0.0010199940977
0.0010199940977
0.0010199940977
0.0010199940977
0.0010199940977
0.0010199940977
0.0010199940977
0.0010199940977
0.00101999409771
0.00101999409784
0.0010199941064
0.00101999465501
0.0010200291377
0.00102126806149
0.00103700084207
0.00115657464148
0.00163275202564
0.00286699776353
0.00526130010511
0.0088019701759
0.0123744741739
0.0145756663795
0.0153447401418
0.0154961918298
0.0155004057404
0.0154773224748
0.0154485538239
0.0154175596769
0.0153850221441
0.0153511135873
0.0153162282074
0.0152805574475
0.0152437497679
0.0152058331471
0.0151670748237
0.0151278839921
0.0150884219104
0.015048190355
0.0150072721954
0.0149661907885
0.0149255700324
0.014885626193
0.0148458749432
0.0148065675323
0.0147684098548
0.014732088483
0.0146978808194
0.0146653342553
0.0146347391028
0.0146068781301
0.0145820200307
0.0145601460857
0.0145412436256
0.0145254422704
0.0145129301805
0.0145038833517
0.0145151772252
0.0010199940977
0.0010199940977
0.0010199940977
0.0010199940977
0.0010199940977
0.0010199940977
0.0010199940977
0.0010199940977
0.0010199940977
0.0010199940977
0.0010199940977
0.0010199940977
0.0010199940977
0.0010199940977
0.0010199940977
0.0010199940977
0.0010199940977
0.0010199940977
0.0010199940977
0.0010199940977
0.0010199940977
0.00101999409771
0.00101999409795
0.00101999411357
0.00101999507787
0.00102005477414
0.00102166459031
0.00104212230187
0.00118856600738
0.00173510859427
0.00309743786299
0.00565743925681
0.00928815692349
0.0127493937264
0.0147355987658
0.01537325851
0.015481424417
0.0154709438348
0.0154392733214
0.0154035063276
0.0153662717092
0.0153281963358
0.0152893699168
0.0152494114318
0.0152084199829
0.0151666741976
0.0151244856222
0.0150819891482
0.0150388294193
0.0149951335453
0.0149511777198
0.0149073078885
0.0148637637314
0.0148203339678
0.0147772656677
0.0147352144916
0.0146943921716
0.0146545908317
0.014616239015
0.0145799335315
0.0145457470466
0.0145141317505
0.0144854696146
0.0144594931807
0.0144363678006
0.0144164513416
0.0143997804759
0.014386451895
0.0143766087777
0.0143863899177
0.0010199940977
0.0010199940977
0.0010199940977
0.0010199940977
0.0010199940977
0.0010199940977
0.0010199940977
0.0010199940977
0.0010199940977
0.0010199940977
0.0010199940977
0.0010199940977
0.0010199940977
0.0010199940977
0.0010199940977
0.0010199940977
0.0010199940977
0.0010199940977
0.0010199940977
0.0010199940977
0.0010199940977
0.00101999409771
0.00101999409813
0.00101999412496
0.0010199957445
0.00102009508503
0.00102228419974
0.00104935670434
0.00122904281669
0.00185468081923
0.0033549844784
0.00608521947165
0.00978704455198
0.013107755989
0.0148725205166
0.0153886790499
0.0154588115922
0.0154348894084
0.0153949125878
0.0153521190564
0.0153086257125
0.0152646679949
0.0152198155367
0.0151740780541
0.0151280640482
0.0150818737651
0.0150350635261
0.0149876815773
0.0149403017422
0.0148931058356
0.0148456834549
0.0147981482638
0.0147509823141
0.0147046570545
0.0146593557232
0.0146147100408
0.0145710389342
0.0145293963818
0.0144901658088
0.0144527889284
0.014417169507
0.0143838018919
0.014353145755
0.0143255779449
0.0143015885761
0.0142812408434
0.0142639372526
0.0142497422112
0.0142390834596
0.0142473299201
0.0010199940977
0.0010199940977
0.0010199940977
0.0010199940977
0.0010199940977
0.0010199940977
0.0010199940977
0.0010199940977
0.0010199940977
0.0010199940977
0.0010199940977
0.0010199940977
0.0010199940977
0.0010199940977
0.0010199940977
0.0010199940977
0.0010199940977
0.0010199940977
0.0010199940977
0.0010199940977
0.0010199940977
0.00101999409771
0.00101999409845
0.00101999414514
0.00101999698757
0.00102017420418
0.00102354078089
0.00106043320456
0.0012822649945
0.00200115216586
0.00364409290271
0.00654851428008
0.0102985043023
0.0134472028035
0.0149864180209
0.0153909957959
0.0154281849345
0.0153921798774
0.0153441972661
0.0152943940215
0.0152438074704
0.0151926472296
0.0151415239137
0.0150905694267
0.0150392996453
0.0149876176855
0.0149360104337
0.0148845553348
0.0148328204187
0.0147808982924
0.0147295404254
0.0146790527795
0.0146290416822
0.0145794292128
0.0145307442843
0.0144834505201
0.0144377793725
0.0143943238098
0.014353274787
0.0143143358386
0.0142773858602
0.0142424871292
0.014210464741
0.0141820105646
0.0141569862428
0.0141351207689
0.014116409075
0.01410142884
0.0140904758658
0.01409748111
0.0010199940977
0.0010199940977
0.0010199940977
0.0010199940977
0.0010199940977
0.0010199940977
0.0010199940977
0.0010199940977
0.0010199940977
0.0010199940977
0.0010199940977
0.0010199940977
0.0010199940977
0.0010199940977
0.0010199940977
0.0010199940977
0.0010199940977
0.0010199940977
0.0010199940977
0.0010199940977
0.0010199940977
0.00101999409772
0.00101999409907
0.0010199941846
0.00101999931444
0.00102031390618
0.00102542629026
0.00107637225536
0.00134719854327
0.00217164760914
0.00397920269733
0.00705833416822
0.0108238543538
0.0137655245824
0.0150778896759
0.01538113845
0.0153882761649
0.0153408231104
0.0152850247268
0.015227751386
0.0151700014905
0.0151124470105
0.0150553182721
0.0149981739147
0.0149411505444
0.0148845021723
0.0148277713824
0.0147709703331
0.0147146780397
0.014659010896
0.0146036755435
0.0145492397408
0.0144961186324
0.0144437433104
0.0143920960625
0.0143420279287
0.014294173541
0.0142485498106
0.0142053164431
0.0141644793872
0.0141261015063
0.0140904429421
0.0140574709532
0.0140275912682
0.0140012327538
0.0139783460527
0.0139588644559
0.013942854388
0.013930458122
0.0139352741456
0.0010199940977
0.0010199940977
0.0010199940977
0.0010199940977
0.0010199940977
0.0010199940977
0.0010199940977
0.0010199940977
0.0010199940977
0.0010199940977
0.0010199940977
0.0010199940977
0.0010199940977
0.0010199940977
0.0010199940977
0.0010199940977
0.0010199940977
0.0010199940977
0.0010199940977
0.0010199940977
0.0010199940977
0.00101999409774
0.00101999410026
0.00101999425817
0.00102000357274
0.0010205579644
0.00102825594448
0.00109718956744
0.00142591014472
0.00237271702881
0.00436656229681
0.00761899276205
0.0113628944773
0.0140601280835
0.0151459670811
0.0153587577651
0.0153400989231
0.0152813556416
0.0152167955436
0.0151517369268
0.0150871159175
0.0150226990752
0.0149588860773
0.01489594974
0.0148332695425
0.0147707111787
0.0147087710747
0.0146475668663
0.0145867374475
0.0145266457207
0.0144676293664
0.0144092670491
0.0143521238667
0.0142968084063
0.0142428343264
0.0141902581123
0.014139901207
0.0140921658173
0.0140468501367
0.0140040117226
0.0139638593098
0.0139267497981
0.0138928969831
0.0138619997715
0.0138342678778
0.0138100928673
0.013789557749
0.0137727578349
0.0137597454465
0.0137631711974
0.0010199940977
0.0010199940977
0.0010199940977
0.0010199940977
0.0010199940977
0.0010199940977
0.0010199940977
0.0010199940977
0.0010199940977
0.0010199940977
0.0010199940977
0.0010199940977
0.0010199940977
0.0010199940977
0.0010199940977
0.0010199940977
0.0010199940977
0.0010199940977
0.0010199940977
0.0010199940977
0.0010199940977
0.00101999409777
0.0010199941024
0.00101999438326
0.00102001043706
0.00102091821264
0.00103226849314
0.0011244921468
0.0015238790106
0.00261353293749
0.00481430475895
0.00823312292088
0.0119080102594
0.0143255496403
0.0151903871561
0.0153240139123
0.0152830145884
0.0152129730301
0.0151392557779
0.0150660915736
0.0149936525852
0.0149222223841
0.0148521537054
0.014782906049
0.0147144331609
0.0146468630653
0.0145796877048
0.0145132250176
0.0144479564746
0.0143835254917
0.0143202827247
0.0142586070374
0.0141981091887
0.0141392955888
0.0140826010258
0.014027584079
0.013974506573
0.0139242491943
0.0138770461742
0.0138324879137
0.0137907239602
0.0137521024888
0.0137168986318
0.0136851374939
0.0136563741538
0.0136308583785
0.0136091330079
0.013591303756
0.0135773156131
0.0135787152763
0.0010199940977
0.0010199940977
0.0010199940977
0.0010199940977
0.0010199940977
0.0010199940977
0.0010199940977
0.0010199940977
0.0010199940977
0.0010199940977
0.0010199940977
0.0010199940977
0.0010199940977
0.0010199940977
0.0010199940977
0.0010199940977
0.0010199940977
0.0010199940977
0.0010199940977
0.0010199940977
0.0010199940977
0.00101999409784
0.00101999410695
0.00101999468103
0.00102003013448
0.00102135097939
0.00103780401517
0.00116113022489
0.00164812239723
0.00290478637291
0.00533189607358
0.00889836019739
0.0124481673818
0.0145572059682
0.0152133924955
0.0152773028897
0.015214595808
0.0151332623571
0.0150508338968
0.0149696304268
0.0148898846735
0.0148113313803
0.01473424455
0.0146588413737
0.0145844994194
0.0145112299913
0.0144391214469
0.014367755172
0.0142976254738
0.0142291155233
0.0141620193267
0.0140966305071
0.0140328716321
0.0139706847595
0.0139107335677
0.0138532931656
0.0137981367999
0.0137458504442
0.0136966916411
0.0136499799866
0.0136061688488
0.0135660058202
0.0135296450181
0.0134968342159
0.013466940105
0.0134402054247
0.0134172882506
0.0133983563977
0.0133833435563
0.0133825670751
0.0010199940977
0.0010199940977
0.0010199940977
0.0010199940977
0.0010199940977
0.0010199940977
0.0010199940977
0.0010199940977
0.0010199940977
0.0010199940977
0.0010199940977
0.0010199940977
0.0010199940977
0.0010199940977
0.0010199940977
0.0010199940977
0.0010199940977
0.0010199940977
0.0010199940977
0.0010199940977
0.0010199940977
0.00101999409804
0.00101999411963
0.00101999541975
0.00102007360518
0.00102201778971
0.00104610050034
0.00121159455501
0.00180613786109
0.00325736916508
0.00592877257287
0.00961248372866
0.0129701428924
0.0147459274792
0.0152120187688
0.0152179598721
0.0151361101234
0.0150435115782
0.0149516769266
0.0148620184601
0.01477453174
0.0146890022968
0.0146050179502
0.0145228378011
0.0144426286365
0.0143639126215
0.0142865326471
0.0142102254453
0.0141354760745
0.0140628237388
0.0139918174733
0.0139227680574
0.0138559702024
0.013790891233
0.0137281242841
0.0136683469008
0.0136110832592
0.0135563730715
0.0135048675655
0.0134566206192
0.0134112227393
0.0133690219143
0.0133309168111
0.0132967027067
0.0132654438334
0.0132374985657
0.013213595298
0.0131936550243
0.0131775374792
0.0131745755147
0.00101999409769
0.00101999409769
0.00101999409769
0.00101999409769
0.00101999409769
0.00101999409769
0.0010199940977
0.0010199940977
0.0010199940977
0.0010199940977
0.0010199940977
0.0010199940977
0.0010199940977
0.0010199940977
0.0010199940977
0.0010199940977
0.0010199940977
0.0010199940977
0.0010199940977
0.0010199940977
0.00101999409771
0.00101999409849
0.0010199941463
0.00101999696103
0.00102016677403
0.0010235045472
0.00106059982497
0.00128498049506
0.00201054278224
0.0036823383804
0.00660997051042
0.0103633739971
0.0134571938787
0.0148872416049
0.0151858297914
0.0151449088319
0.0150466642585
0.0149430329481
0.0148416083517
0.0147431439285
0.0146474155674
0.0145541990292
0.0144633598741
0.0143748630704
0.014288541385
0.014203813948
0.0141208593975
0.0140400111414
0.013961174863
0.0138845268146
0.0138097802005
0.0137371948066
0.0136670998315
0.0135990610014
0.0135337194994
0.0134716923796
0.0134124101143
0.0133557443943
0.0133022855464
0.0132521768516
0.0132050324555
0.0131611122675
0.0131212107186
0.0130853260341
0.0130527507409
0.0130235761041
0.0129983030791
0.012977048088
0.0129598615096
0.0129548664833
0.00101999409769
0.00101999409769
0.00101999409769
0.00101999409769
0.00101999409769
0.00101999409769
0.00101999409769
0.00101999409769
0.00101999409769
0.00101999409769
0.00101999409769
0.00101999409769
0.00101999409769
0.00101999409769
0.00101999409769
0.00101999409769
0.00101999409769
0.00101999409769
0.00101999409769
0.0010199940977
0.00101999409773
0.00101999409959
0.00101999421456
0.00102000096083
0.00102040188865
0.00102662702736
0.00108588561131
0.0013875194361
0.00227964050816
0.00419594916633
0.00737992127079
0.0111323394308
0.0138886060091
0.014975786685
0.015134532315
0.015056871755
0.0149442831109
0.0148303037934
0.0147194801474
0.0146121812882
0.0145081773364
0.0144072175201
0.0143091393224
0.0142138792747
0.0141212915049
0.0140311373318
0.0139432501103
0.0138575867419
0.0137742303446
0.0136934833795
0.0136151937158
0.0135394833446
0.0134664582976
0.013395630475
0.0133277187344
0.0132633473966
0.013201841993
0.0131433548498
0.0130882719161
0.013036148804
0.0129871037246
0.0129415462439
0.0128999244208
0.0128624199059
0.0128285661444
0.0127984111416
0.0127722041252
0.0127498560616
0.0127313419244
0.0127235509383
0.00101999409769
0.00101999409769
0.00101999409769
0.00101999409769
0.00101999409769
0.00101999409769
0.00101999409769
0.00101999409769
0.00101999409769
0.00101999409769
0.00101999409769
0.00101999409769
0.00101999409769
0.00101999409769
0.00101999409769
0.00101999409769
0.00101999409769
0.00101999409769
0.00101999409769
0.0010199940977
0.00101999409777
0.0010199941024
0.00101999438153
0.00102001026694
0.00102090202698
0.0010322022224
0.00112405987113
0.00152377545421
0.00261568605627
0.00482217381759
0.00824450600761
0.0119010943102
0.0142492619223
0.0150127111073
0.0150593245943
0.0149524471861
0.0148270430518
0.014703175333
0.0145835430931
0.0144679372557
0.0143558391098
0.0142472939323
0.0141421667691
0.0140402924019
0.0139415339218
0.0138457028666
0.0137525761642
0.0136621521365
0.0135745993001
0.0134900454702
0.0134081559665
0.0133291922776
0.0132533951562
0.0131801018567
0.0131097877995
0.013043027682
0.0129792755101
0.0129187694255
0.0128618333285
0.012807961238
0.0127572700287
0.0127104796573
0.012667790489
0.0126287789927
0.0125934770673
0.0125622205727
0.012534947507
0.0125117890407
0.01249267054
0.012482594637
0.00101999409769
0.00101999409769
0.00101999409769
0.00101999409769
0.00101999409769
0.00101999409769
0.00101999409769
0.00101999409769
0.00101999409769
0.00101999409769
0.00101999409769
0.00101999409769
0.00101999409769
0.00101999409769
0.00101999409769
0.00101999409769
0.00101999409769
0.00101999409769
0.00101999409769
0.0010199940977
0.0010199940979
0.00101999411051
0.00101999489367
0.00102004249244
0.00102160766868
0.00104083572024
0.00117966245401
0.00170843179239
0.00304406446548
0.00557344209275
0.00919021273639
0.012635868408
0.014526079459
0.0150015874664
0.0149625876628
0.0148321357832
0.0146943441361
0.0145607432725
0.0144321827286
0.0143081630021
0.0141887049158
0.0140732774914
0.0139613953625
0.0138531435715
0.0137484314576
0.0136471290156
0.0135490753167
0.0134542167553
0.0133625363365
0.0132740647408
0.0131886024164
0.013106460066
0.013027795267
0.0129522437169
0.0128799310385
0.0128106690014
0.0127448204229
0.0126827724275
0.0126239560788
0.0125683665632
0.0125166168074
0.0124687793087
0.0124244685838
0.0123839180447
0.0123474551592
0.0123153324033
0.0122875184715
0.0122633033037
0.0122426230988
0.012230256091
0.00101999409769
0.00101999409769
0.00101999409769
0.00101999409769
0.00101999409769
0.00101999409769
0.00101999409769
0.00101999409769
0.00101999409769
0.00101999409769
0.00101999409769
0.00101999409769
0.00101999409769
0.00101999409769
0.00101999409769
0.00101999409769
0.00101999409769
0.00101999409769
0.00101999409769
0.0010199940977
0.00101999409836
0.00101999413823
0.0010199964541
0.00102013145854
0.0010229487526
0.00105601369375
0.00126490594886
0.00195933096661
0.00358687907259
0.0064596520424
0.0101918112487
0.0132994286368
0.0147091197044
0.0149464180814
0.0148451024932
0.0146957500948
0.0145466562019
0.0144034510705
0.0142658291853
0.014133344095
0.0140061781179
0.0138837692282
0.0137655358606
0.0136514721826
0.013541338108
0.0134349432395
0.0133322149445
0.0132330875931
0.0131375031352
0.0130455002334
0.0129570997808
0.0128722789834
0.0127906961187
0.0127125025279
0.0126378993901
0.0125663684947
0.012498435809
0.012434568221
0.0123741917072
0.0123176337894
0.0122651446512
0.0122159573569
0.0121701743376
0.0121288200498
0.0120918677826
0.0120584102651
0.0120286808898
0.0120031743007
0.011981669095
0.0119672857983
0.00101999409769
0.00101999409769
0.00101999409769
0.00101999409769
0.00101999409769
0.00101999409769
0.00101999409769
0.00101999409769
0.00101999409769
0.00101999409769
0.00101999409769
0.00101999409769
0.00101999409769
0.00101999409769
0.00101999409769
0.00101999409769
0.00101999409769
0.00101999409769
0.00101999409769
0.00101999409773
0.00101999409975
0.00101999422241
0.00102000131276
0.00102041278939
0.00102683979892
0.00108746903101
0.00139763961721
0.00231071512981
0.00426395120963
0.00747680626007
0.0112032702932
0.0138486318571
0.0147953709252
0.0148522448272
0.014708087043
0.0145433780663
0.0143833648996
0.014230281409
0.0140836944216
0.0139431973998