/*--------------------------------*- C++ -*----------------------------------*\
| =========                 |                                                 |
| \\      /  F ield         | foam-extend: Open Source CFD                    |
|  \\    /   O peration     | Version:     4.1                                |
|   \\  /    A nd           | Web:         http://www.foam-extend.org         |
|    \\/     M anipulation  |                                                 |
\*---------------------------------------------------------------------------*/
FoamFile
{
    version     2.0;
    format      ascii;
    class       volScalarField;
    location    "0.0003";
    object      T;
}
// * * * * * * * * * * * * * * * * * * * * * * * * * * * * * * * * * * * * * //

dimensions      [0 0 0 1 0 0 0];

internalField   nonuniform List<scalar> 
8400
(
226.836296597
226.836296597
226.836296597
226.836296597
226.836296597
226.836296597
226.836296597
226.836296597
226.836296597
226.836296597
226.836296597
226.836296597
226.836296597
226.836296597
226.836296597
226.836296597
226.836296597
226.836296597
226.836296597
226.836296597
226.836296597
226.836296597
226.836296597
226.836296597
226.836296597
226.836296621
226.836298095
226.836386294
226.841811914
226.92694456
1222.33485089
5113.37124003
9979.3725337
13285.0082757
15297.1289404
16651.6205472
17391.9466171
17707.2430685
17807.2174353
17837.5124708
17851.5670577
17862.5495497
17873.254385
17884.3510629
17895.7744335
17907.7186868
17919.3248281
17932.479199
17946.248474
17960.8015937
17976.0829291
17992.1637159
18008.004768
18025.3759142
18043.3650588
18061.9816402
18080.9255676
18100.005209
18118.0965411
18136.8462937
18155.2107554
18172.8659678
18189.5827202
18205.0980603
18219.1235164
18231.223397
18241.2402882
18248.0013733
18253.459486
18267.083567
226.836296594
226.836296594
226.836296594
226.836296594
226.836296594
226.836296594
226.836296594
226.836296594
226.836296594
226.836296594
226.836296594
226.836296594
226.836296594
226.836296594
226.836296594
226.836296594
226.836296594
226.836296594
226.836296594
226.836296594
226.836296594
226.836296594
226.836296594
226.836296594
226.836296596
226.836296719
226.836304596
226.836800394
226.856103548
294.880702402
2661.06741907
6124.73785626
11818.3402735
14308.5436819
16034.056668
17113.1925376
17644.2565581
17834.7075095
17890.1769738
17910.9413191
17925.4965905
17939.2745194
17953.2870983
17967.8254826
17982.901481
17998.527485
18014.7090267
18031.5558966
18049.0815772
18067.1858111
18085.9894795
18105.3377076
18125.170542
18145.57779
18165.341832
18186.3546475
18207.2436089
18228.0076008
18248.3961776
18268.2349785
18287.4487978
18305.738128
18322.7824535
18337.3943035
18351.2211982
18363.0219781
18372.8169546
18380.3745829
18385.6238173
18395.4558821
226.836296593
226.836296593
226.836296593
226.836296593
226.836296593
226.836296593
226.836296593
226.836296593
226.836296593
226.836296593
226.836296593
226.836296593
226.836296593
226.836296593
226.836296593
226.836296593
226.836296593
226.836296593
226.836296593
226.836296593
226.836296593
226.836296593
226.836296593
226.836296593
226.836296606
226.8362974
226.836346335
226.839436676
226.896776626
800.792030392
4682.37975076
9063.7998281
13003.7390468
15132.0550875
16587.5415204
17416.7218402
17773.4009543
17885.15467
17919.379796
17935.840477
17949.5605588
17963.2045845
17977.2912007
17991.8657817
18006.9559969
18022.5819943
18038.9137858
18055.848292
18073.3635381
18091.5408773
18110.3065369
18129.5835869
18149.3982126
18169.5203093
18189.9936675
18209.4935221
18229.914127
18250.0466343
18269.7227299
18288.8179513
18307.09598
18324.2355457
18340.2383792
18354.9469992
18366.8995349
18378.0832516
18387.0946855
18393.9418967
18398.6067471
18406.6352984
226.836296593
226.836296593
226.836296593
226.836296593
226.836296593
226.836296593
226.836296593
226.836296593
226.836296593
226.836296593
226.836296593
226.836296593
226.836296593
226.836296593
226.836296593
226.836296593
226.836296593
226.836296593
226.836296593
226.836296593
226.836296593
226.836296593
226.836296593
226.836296593
226.836296641
226.836299595
226.836473879
226.846946137
226.985498473
1986.51120926
5555.2742891
10929.7403279
13780.7574381
15680.6030311
16921.3982079
17572.2048955
17820.0924779
17893.0640408
17917.2165848
17932.3122493
17946.1544683
17960.1739573
17974.703276
17989.6976268
18005.1975411
18021.2086024
18037.9237431
18055.1764205
18072.9796648
18091.3796998
18110.2652533
18129.5929097
18149.4405789
18168.5162269
18188.7829542
18208.8602379
18228.8935647
18248.6188178
18267.8812717
18286.5340141
18304.3054542
18319.8781214
18335.2427456
18349.1630047
18361.4950074
18372.1007148
18380.6637611
18387.1164961
18391.462942
18398.6128758
226.836296592
226.836296592
226.836296592
226.836296592
226.836296592
226.836296592
226.836296592
226.836296592
226.836296592
226.836296592
226.836296592
226.836296592
226.836296592
226.836296592
226.836296592
226.836296592
226.836296592
226.836296592
226.836296592
226.836296592
226.836296592
226.836296592
226.836296592
226.836296594
226.836296712
226.836304317
226.836786177
226.856008415
294.289067736
2659.67467969
6125.91946235
11823.161982
14315.3918568
16040.9210476
17115.7917379
17638.1927679
17822.5542964
17875.4328044
17896.1879129
17911.3486541
17925.8696806
17940.616326
17955.7702215
17971.5023173
17987.7343613
18004.4597609
18021.6737898
18039.5576466
18057.9009819
18076.7972565
18096.1696861
18114.9889149
18135.0569309
18155.2555918
18175.5923869
18195.8331152
18215.8380174
18235.5215057
18254.7721565
18272.3148849
18289.8896962
18306.257319
18321.2919125
18334.8583677
18346.8880497
18357.1220757
18365.4439915
18371.7334538
18376.0002358
18382.8402884
226.836296592
226.836296592
226.836296592
226.836296592
226.836296592
226.836296592
226.836296592
226.836296592
226.836296592
226.836296592
226.836296592
226.836296592
226.836296592
226.836296592
226.836296592
226.836296592
226.836296592
226.836296592
226.836296592
226.836296592
226.836296592
226.836296592
226.836296592
226.836296597
226.836296907
226.836315939
226.837499574
226.866980699
435.269940136
3138.16728866
6813.2737211
12417.0368527
14703.427281
16284.287236
17226.7700045
17656.7204558
17799.1692799
17841.4385609
17861.3273429
17877.3167219
17892.870996
17908.665305
17924.8651374
17941.4506786
17958.5022299
17976.0884305
17994.1274824
18012.5739582
18031.715071
18050.3300283
18070.3352276
18090.5734219
18111.0592922
18131.6591356
18152.2672072
18172.8992549
18192.3219873
18212.1775194
18231.4367318
18249.9279006
18267.441837
18283.8494838
18299.0238877
18312.5922803
18324.4592906
18333.5596801
18341.8345342
18348.0948612
18352.3817145
18359.0864118
226.836296592
226.836296592
226.836296592
226.836296592
226.836296592
226.836296592
226.836296592
226.836296592
226.836296592
226.836296592
226.836296592
226.836296592
226.836296592
226.836296592
226.836296592
226.836296592
226.836296592
226.836296592
226.836296592
226.836296592
226.836296592
226.836296592
226.836296592
226.836296602
226.836297228
226.836335738
226.838796344
226.888348625
702.810364863
4461.57119743
8544.67344989
12848.9442041
14991.6740786
16451.0718526
17284.6908489
17646.0882579
17760.571037
17797.1935062
17816.7563132
17833.5973386
17850.2055497
17867.0660271
17884.1944578
17901.7055051
17919.6758382
17938.121684
17957.1231049
17975.6180409
17995.4285062
18015.6220512
18036.1696876
18057.0157085
18078.089192
18099.3193044
18119.518173
18140.4863751
18161.0934916
18181.2445605
18200.6774355
18219.344579
18237.137822
18252.6301115
18267.86399
18281.4574775
18293.3220057
18303.3838925
18311.5467175
18317.7823102
18322.0441516
18328.4972592
226.836296592
226.836296592
226.836296592
226.836296592
226.836296592
226.836296592
226.836296592
226.836296592
226.836296592
226.836296592
226.836296592
226.836296592
226.836296592
226.836296592
226.836296592
226.836296592
226.836296592
226.836296592
226.836296592
226.836296592
226.836296592
226.836296592
226.836296592
226.836296611
226.836297835
226.836372138
226.841006592
226.918259429
1092.29002838
5021.40240426
9736.82865657
13197.0345661
15215.5296016
16568.7997855
17309.2399519
17616.3251808
17711.1405825
17743.7664154
17763.3993255
17781.2452342
17798.949803
17816.9652824
17835.163503
17853.7539727
17871.7993634
17891.1889432
17910.9819965
17931.1551776
17951.7842994
17972.7712177
17994.0471002
18015.6380156
18036.3492744
18058.1466663
18079.7484689
18101.1390485
18122.1705355
18142.6278405
18162.5358656
18180.3434722
18198.2456694
18214.8116191
18229.9768208
18243.6231454
18255.646851
18265.8205966
18274.044308
18280.2379847
18284.3927983
18290.5771999
226.836296592
226.836296592
226.836296592
226.836296592
226.836296592
226.836296592
226.836296592
226.836296592
226.836296592
226.836296592
226.836296592
226.836296592
226.836296592
226.836296592
226.836296592
226.836296592
226.836296592
226.836296592
226.836296592
226.836296592
226.836296592
226.836296592
226.836296592
226.836296626
226.836298749
226.836426025
226.844205765
226.955922304
1602.59317196
5347.93806628
10443.9403365
13480.5094736
15394.2982319
16646.139907
17308.987757
17573.7502051
17653.5387019
17682.7464454
17702.6572606
17721.4192463
17740.2075468
17759.2888797
17777.7269262
17797.3647451
17817.2986617
17837.6411594
17858.3268931
17879.450096
17900.9399999
17922.6810368
17943.8726653
17966.0993081
17988.358088
18010.6039396
18032.6534011
18054.5866577
18075.162056
18096.0154474
18116.0262881
18135.1373547
18153.0770463
18169.7371203
18185.1953665
18197.9428594
18209.9813128
18220.2044902
18228.4579177
18234.6799015
18238.8622279
18244.9140911
226.836296592
226.836296592
226.836296592
226.836296592
226.836296592
226.836296592
226.836296592
226.836296592
226.836296592
226.836296592
226.836296592
226.836296592
226.836296592
226.836296592
226.836296592
226.836296592
226.836296592
226.836296592
226.836296592
226.836296592
226.836296592
226.836296592
226.836296593
226.836296647
226.836300032
226.836499076
226.848326269
227.002380585
2128.20581958
5613.66153863
10956.7622177
13723.0986061
15534.036753
16697.5641787
17293.6799796
17517.0890774
17586.5685147
17614.4588079
17635.0935022
17654.8561669
17674.7551237
17694.032786
17714.4119735
17735.0219577
17755.9351391
17777.2905562
17798.9631144
17821.0815182
17842.5037462
17865.1128161
17887.8865082
17910.7757488
17933.6542465
17956.5321452
17978.2135904
18000.6296415
18022.4211288
18043.5911512
18063.948441
18083.2865496
18100.4875502
18117.3994521
18132.816542
18146.6990595
18158.786702
18168.9864164
18177.2198398
18183.4430872
18187.6070296
18193.4905755
226.836296592
226.836296592
226.836296592
226.836296592
226.836296592
226.836296592
226.836296592
226.836296592
226.836296592
226.836296592
226.836296592
226.836296592
226.836296592
226.836296592
226.836296592
226.836296592
226.836296592
226.836296592
226.836296592
226.836296592
226.836296592
226.836296592
226.836296593
226.836296675
226.836301663
226.836594464
226.852888445
251.884144176
2460.66094541
5874.09807624
11369.182472
13945.7048057
15654.707074
16724.6200007
17256.576813
17450.760307
17512.2115932
17539.4277871
17561.092775
17581.1905581
17602.1702351
17623.3999436
17644.7986861
17666.4457737
17688.4436101
17710.8171156
17732.642879
17755.644774
17778.7634219
17802.1564598
17825.6739651
17848.4378724
17872.0595151
17895.3649568
17918.505454
17941.2235382
17963.4541931
17984.0321054
18004.7053216
18024.2853249
18042.59858
18059.5978268
18075.2254863
18088.1585783
18100.413424
18110.6726957
18118.938156
18125.1954742
18129.3690218
18135.1323545
226.836296592
226.836296592
226.836296592
226.836296592
226.836296592
226.836296592
226.836296592
226.836296592
226.836296592
226.836296592
226.836296592
226.836296592
226.836296592
226.836296592
226.836296592
226.836296592
226.836296592
226.836296592
226.836296592
226.836296592
226.836296592
226.836296592
226.836296594
226.836296731
226.83630552
226.836859763
226.857822141
307.057116723
2697.78858509
6139.99335953
11732.1489933
14142.4855405
15757.5457131
16735.0261174
17209.2817849
17376.7901539
17430.2075768
17458.4023251
17480.3535928
17502.3858388
17524.5477433
17546.8860757
17569.4230062
17592.2294949
17614.4757811
17637.8651282
17661.4363564
17685.2137667
17709.3343583
17732.6195182
17756.9748964
17781.2206811
17805.3658043
17829.3200119
17852.1536529
17875.3591675
17897.9330824
17919.6741114
17940.6596041
17959.5306631
17978.1471866
17995.4006613
18011.0720239
18025.0641281
18037.2841853
18047.5984389
18055.8847858
18062.11857
18066.2941227
18071.8505281
226.836296592
226.836296592
226.836296592
226.836296592
226.836296592
226.836296592
226.836296592
226.836296592
226.836296592
226.836296592
226.836296592
226.836296592
226.836296592
226.836296592
226.836296592
226.836296592
226.836296592
226.836296592
226.836296592
226.836296592
226.836296592
226.836296592
226.836296596
226.836296848
226.836312481
226.837280455
226.864417116
388.75456627
2948.48526546
6476.66287623
12058.1235342
14321.7944745
15839.7037875
16733.3125251
17150.7280115
17294.7675884
17342.8172794
17370.5001844
17394.4747743
17417.9934513
17441.4023961
17464.9671094
17488.0000894
17511.9186823
17536.0589821
17560.380483
17584.9548746
17608.8161912
17633.7469984
17658.6353727
17683.6575076
17708.5840624
17732.4712839
17757.0571941
17781.172236
17804.8586109
17826.8755586
17849.0740885
17870.285504
17890.3535457
17909.1771416
17926.6825464
17941.5047607
17955.6546493
17967.9152789
17978.2599859
17986.5910589
17992.8274626
17996.9351942
18002.2566735
226.836296592
226.836296592
226.836296592
226.836296592
226.836296592
226.836296592
226.836296592
226.836296592
226.836296592
226.836296592
226.836296592
226.836296592
226.836296592
226.836296592
226.836296592
226.836296592
226.836296592
226.836296592
226.836296592
226.836296592
226.836296592
226.836296592
226.836296599
226.836297034
226.836323403
226.837940259
226.874460442
513.562902568
3491.74208964
6990.44286847
12364.6635807
14487.3748156
15907.9279616
16720.0939585
17083.3568227
17206.3279783
17250.3333019
17278.4682706
17303.8061394
17328.6280581
17353.4475991
17377.5046754
17402.3785347
17427.4236022
17452.576709
17477.1958504
17502.7312493
17528.3517571
17554.0666454
17578.9195029
17604.6193562
17630.2487125
17655.5617328
17680.729502
17704.3531379
17728.4726788
17751.7314252
17774.2905644
17794.8760417
17815.3004492
17834.3842325
17851.9736484
17867.8276406
17881.989736
17894.4011831
17903.8382254
17912.2272472
17918.4308191
17922.5077563
17927.6226584
226.836296592
226.836296592
226.836296592
226.836296592
226.836296592
226.836296592
226.836296592
226.836296592
226.836296592
226.836296592
226.836296592
226.836296592
226.836296592
226.836296592
226.836296592
226.836296592
226.836296592
226.836296592
226.836296592
226.836296592
226.836296592
226.836296592
226.836296604
226.836297357
226.836343056
226.839200298
226.894848166
747.35148466
4533.03402359
8294.64633786
12649.5560554
14650.9661476
15957.7693461
16692.1161981
17007.5478765
17111.9022684
17153.1111175
17181.8561467
17208.5435525
17234.0220386
17260.0958572
17286.1597737
17312.2377617
17337.6864843
17364.0082153
17390.3990919
17416.871142
17442.5519505
17469.0283306
17495.5005655
17521.9049025
17547.230739
17573.2651135
17598.8155334
17623.9801884
17647.4233414
17670.9794117
17693.8852638
17715.7952905
17736.589948
17754.8732852
17772.4620621
17788.4778069
17802.7197063
17815.1991663
17825.6802341
17834.0492089
17840.2998104
17843.3172366
17848.246382
226.836296592
226.836296592
226.836296592
226.836296592
226.836296592
226.836296592
226.836296592
226.836296592
226.836296592
226.836296592
226.836296592
226.836296592
226.836296592
226.836296592
226.836296592
226.836296592
226.836296592
226.836296592
226.836296592
226.836296592
226.836296592
226.836296592
226.836296614
226.836297996
226.83638092
226.841470638
226.926200539
1142.70466924
5028.30788957
9490.0650004
12930.944093
14799.339848
16003.7409285
16655.7382786
16923.1703762
17011.913627
17051.0226212
17080.9565697
17108.3016292
17135.9667356
17163.3832484
17190.8101995
17217.3160952
17244.6869792
17272.1301585
17298.6826142
17326.0865653
17353.415718
17380.6964249
17407.0298676
17434.0669781
17460.8827701
17486.5741085
17512.6302034
17538.122591
17562.9604778
17586.1060099
17609.2114664
17631.2921008
17652.2196926
17671.7542012
17688.622905
17704.793815
17719.1232201
17731.5540308
17741.9692636
17750.4097324
17756.6631941
17760.7090304
17765.3202818
226.836296592
226.836296592
226.836296592
226.836296592
226.836296592
226.836296592
226.836296592
226.836296592
226.836296592
226.836296592
226.836296592
226.836296592
226.836296592
226.836296592
226.836296592
226.836296592
226.836296592
226.836296592
226.836296592
226.836296592
226.836296592
226.836296592
226.836296633
226.836299193
226.836450751
226.845515378
226.973731353
1722.8237407
5367.84540798
10251.985571
13196.6921773
14934.1788641
16034.502511
16607.7112905
16832.5048134
16908.1953556
16945.5419797
16975.5428911
17004.9529607
17033.9972178
17062.0529134
17090.6278502
17119.2355561
17147.0569474
17175.4684006
17203.8584132
17232.2093554
17259.6295483
17287.6807708
17315.6291011
17342.4833998
17369.8301244
17396.8563391
17422.4802533
17448.4937896
17473.6840935
17498.0290712
17520.4743929
17542.7533182
17563.8257709
17583.4757704
17601.5865711
17616.8809944
17631.3047531
17643.7234968
17654.2051675
17662.5451979
17668.7277203
17672.7519026
17677.2050711
226.836296592
226.836296592
226.836296592
226.836296592
226.836296592
226.836296592
226.836296592
226.836296592
226.836296592
226.836296592
226.836296592
226.836296592
226.836296592
226.836296592
226.836296592
226.836296592
226.836296592
226.836296592
226.836296592
226.836296592
226.836296592
226.836296593
226.836296668
226.836301275
226.836566056
226.851669347
231.805598901
2306.90825957
5691.38953139
10845.9200111
13451.0199584
15061.8801818
16048.7592175
16546.8910027
16734.7735639
16799.9420457
16835.7624311
16867.4152847
16898.1479403
16927.8427615
16957.980465
16987.9620032
17016.9818204
17046.6252351
17076.2444314
17104.8313101
17134.0474225
17163.1488289
17191.1051047
17219.69356
17248.1648644
17275.2444844
17302.7175236
17329.7257686
17355.1057899
17380.6558682
17405.3014792
17428.9382813
17450.4670645
17471.6931565
17491.3457208
17509.4496172
17525.8947609
17539.4264601
17551.9384615
17562.3353706
17570.6594723
17576.8371202
17580.8260054
17585.0104281
226.836296592
226.836296592
226.836296592
226.836296592
226.836296592
226.836296592
226.836296592
226.836296592
226.836296592
226.836296592
226.836296592
226.836296592
226.836296592
226.836296592
226.836296592
226.836296592
226.836296592
226.836296592
226.836296592
226.836296592
226.836296592
226.836296594
226.836296738
226.83630585
226.836868775
226.859096078
303.988631081
2663.23749952
6027.6897496
11362.1881614
13697.187041
15177.5185994
16054.0208014
16475.2351411
16629.6601888
16686.6893605
16723.306019
16756.2452049
16787.7235175
16819.4523227
16850.1665003
16881.3971855
16912.3860611
16942.4414485
16973.0674034
17003.4672795
17032.7700777
17062.6004651
17091.3664111
17120.6154724
17149.6027718
17177.1710747
17205.2470787
17232.6502703
17259.3093622
17284.2228322
17309.071996
17332.9774388
17354.6981825
17375.9783721
17395.6927438
17413.829727
17430.3718354
17443.9547292
17456.4452616
17466.7559502
17474.9825533
17481.0946508
17485.0163989
17488.8591705
226.836296592
226.836296592
226.836296592
226.836296592
226.836296592
226.836296592
226.836296592
226.836296592
226.836296592
226.836296592
226.836296592
226.836296592
226.836296592
226.836296592
226.836296592
226.836296592
226.836296592
226.836296592
226.836296592
226.836296592
226.836296592
226.836296597
226.836296943
226.836317886
226.83758082
226.870155516
427.417554335
3040.82794412
6463.9607575
11829.1801311
13932.205087
15275.8016731
16042.1498548
16395.7642969
16520.1638842
16571.3974845
16608.2618544
16641.8481392
16675.3552599
16707.7559469
16740.4813883
16772.1585954
16804.2768121
16836.1672586
16866.9712734
16898.3647375
16928.5421277
16959.1497161
16989.435286
17018.5104558
17048.0282355
17077.0713804
17104.590532
17132.3091272
17159.4586003
17184.6436959
17209.7103332
17233.8247663
17256.6256474
17277.0143967
17296.8725655
17314.9237391
17331.2764995
17344.7383035
17357.2181212
17367.5973627
17375.8595689
17381.9112323
17385.7403036
17389.2610352
226.836296592
226.836296592
226.836296592
226.836296592
226.836296592
226.836296592
226.836296592
226.836296592
226.836296592
226.836296592
226.836296592
226.836296592
226.836296592
226.836296592
226.836296592
226.836296592
226.836296592
226.836296592
226.836296592
226.836296592
226.836296592
226.836296604
226.836297376
226.836342678
226.839060254
226.89368831
700.0866321
4330.20880619
7353.06846981
12257.9438127
14154.4158801
15354.9352111
16017.1436293
16304.2593995
16405.7489715
16453.2210377
16490.1492725
16525.8061794
16560.0190447
16594.5287857
16627.8177459
16661.381782
16693.7560352
16726.6961381
16758.3865671
16790.5667315
16822.3784843
16852.8971766
16883.943327
16913.6320522
16943.7210774
16973.302257
17001.2457138
17029.3407589
17056.5908123
17082.0364728
17107.3888704
17131.6089919
17154.5147243
17174.8472368
17194.6289904
17212.7337821
17229.0901869
17242.4479163
17254.8330826
17265.0614428
17273.1511218
17279.0957048
17282.8522827
17286.1268796
226.836296592
226.836296592
226.836296592
226.836296592
226.836296592
226.836296592
226.836296592
226.836296592
226.836296592
226.836296592
226.836296592
226.836296592
226.836296592
226.836296592
226.836296592
226.836296592
226.836296592
226.836296592
226.836296592
226.836296592
226.836296592
226.836296622
226.836298466
226.836406804
226.842858054
226.945407252
1300.55436911
5095.39099199
9258.54159699
12661.7175351
14362.421536
15420.1363136
15977.3026009
16205.6767217
16287.8474237
16332.3358482
16370.8833005
16407.221362
16443.5774774
16478.558122
16513.6374804
16547.5904262
16581.9791628
16614.9470155
16648.4540232
16680.5705143
16713.1764954
16744.366888
16775.9767295
16806.2384207
16836.7321975
16866.7265405
16895.1296689
16923.520305
16951.0775808
16976.7184718
17002.1734627
17026.4995129
17048.4490561
17069.7992132
17089.5205571
17107.4873738
17123.7330313
17136.9566085
17149.2363772
17159.4058703
17167.4256212
17173.2700146
17176.9726661
17179.8560587
226.836296592
226.836296592
226.836296592
226.836296592
226.836296592
226.836296592
226.836296592
226.836296592
226.836296592
226.836296592
226.836296592
226.836296592
226.836296592
226.836296592
226.836296592
226.836296592
226.836296592
226.836296592
226.836296592
226.836296592
226.836296593
226.836296667
226.836301183
226.836559455
226.851183832
227.039269486
2212.61611607
5573.7511438
10363.3172162
13022.3069487
14548.2140335
15462.3117784
15920.7811688
16098.1220963
16166.1214916
16210.1255623
16249.1898504
16287.631068
16324.6124506
16360.8417588
16397.2296889
16432.2425723
16467.4372744
16501.382926
16535.6551008
16568.6294776
16601.9020096
16633.7247814
16665.8837732
16696.5757389
16727.5102018
16757.9302597
16786.5435522
16815.1958391
16842.9557312
16868.7270381
16894.2962276
16918.6364926
16940.543987
16961.8671564
16981.4919042
16999.4348104
17014.3766363
17028.4684755
17040.6023841
17050.6428495
17058.6472323
17064.5423518
17067.106208
17069.6407707
226.836296592
226.836296592
226.836296592
226.836296592
226.836296592
226.836296592
226.836296592
226.836296592
226.836296592
226.836296592
226.836296592
226.836296592
226.836296592
226.836296592
226.836296592
226.836296592
226.836296592
226.836296592
226.836296592
226.836296592
226.836296595
226.836296792
226.836309092
226.837060473
226.863264005
331.638660015
2729.96536489
6032.79782168
11142.3356778
13368.7468681
14705.0360104
15481.0979289
15848.4993033
15983.6128323
16042.2866029
16085.5587112
16125.9681077
16165.8694477
16204.2553022
16242.4000284
16279.2394307
16315.273449
16351.4986136
16386.2743183
16421.2147583
16454.820126
16488.7279892
16521.1431321
16553.7516871
16584.921534
16616.2622567
16646.8586129
16675.7448631
16704.6403701
16731.545324
16758.2908817
16783.8727503
16807.1456584
16829.9726625
16851.2004386
16870.8308848
16887.5596094
16903.4287065
16917.4214281
16929.3699294
16939.3723576
16946.1335888
16951.8861354
16955.3613133
16957.5843526
226.836296592
226.836296592
226.836296592
226.836296592
226.836296592
226.836296592
226.836296592
226.836296592
226.836296592
226.836296592
226.836296592
226.836296592
226.836296592
226.836296592
226.836296592
226.836296592
226.836296592
226.836296592
226.836296592
226.836296592
226.836296602
226.83629724
226.83633443
226.838505312
226.885083775
566.871823608
3608.91154542
6683.02636824
11775.3908888
13671.6112907
14833.0011355
15477.3525344
15759.0981696
15863.4272123
15916.2545054
15960.0671472
16002.3770973
16042.925435
16082.559876
16121.9547401
16159.8542721
16197.0199035
16234.0458578
16269.5943259
16305.3341785
16339.5095296
16373.9366347
16406.7472388
16439.9167163
16471.3916336
16503.0467192
16532.9896088
16562.9656073
16592.0134935
16618.9568772
16645.7104373
16671.2166718
16694.2798461
16716.9711887
16738.1193751
16756.5736317
16774.1653641
16789.8790491
16803.6931413
16814.466134
16824.2521967
16831.9048985
16837.4848836
16840.9510123
16842.9527362
226.836296592
226.836296592
226.836296592
226.836296592
226.836296592
226.836296592
226.836296592
226.836296592
226.836296592
226.836296592
226.836296592
226.836296592
226.836296592
226.836296592
226.836296592
226.836296592
226.836296592
226.836296592
226.836296592
226.836296592
226.836296624
226.836298577
226.836411647
226.843005316
226.948563895
1250.69456513
5022.12681047
8603.48211466
12317.2676388
13947.3137215
14928.289084
15445.5302851
15657.1882123
15738.7541343
15789.6596039
15834.4413793
15877.4814981
15919.2592083
15960.0920675
16000.511613
16039.4059345
16077.4436355
16115.3015904
16151.6448038
16188.0911869
16222.9053829
16257.7471708
16291.0193717
16324.4789402
16356.235387
16388.0888045
16418.1044763
16448.1646904
16476.3446837
16504.2204918
16530.9389416
16555.3075833
16579.2590419
16601.8035408
16621.6605676
16640.9738721
16658.439574
16674.0507442
16686.485348
16698.0874259
16707.6677789
16715.2075446
16720.6350529
16724.045808
16724.7032834
226.836296592
226.836296592
226.836296592
226.836296592
226.836296592
226.836296592
226.836296592
226.836296592
226.836296592
226.836296592
226.836296592
226.836296592
226.836296592
226.836296592
226.836296592
226.836296592
226.836296592
226.836296592
226.836296592
226.836296593
226.836296698
226.836302897
226.836648048
226.855299658
247.332341734
2372.89157419
5648.25760806
10249.2688307
12786.2089661
14181.3470242
14992.0913776
15391.7568695
15544.9975245
15612.1502115
15661.6394871
15707.7272169
15752.1170692
15795.145905
15836.997361
15878.4151045
15918.166277
15956.9180938
15995.5355487
16032.517589
16068.6788665
16104.8561818
16139.3570277
16173.9681417
16206.7472403
16239.6252566
16270.6516006
16301.7436697
16330.7731611
16359.7472013
16387.5755616
16413.1963164
16438.3091717
16462.0542053
16483.2509516
16503.9657106
16523.116657
16539.2247317
16554.6153989
16567.9897568
16579.2652435
16588.6694803
16594.8928243
16600.315907
16603.6495333
16605.0555318
226.836296592
226.836296592
226.836296592
226.836296592
226.836296592
226.836296592
226.836296592
226.836296592
226.836296592
226.836296592
226.836296592
226.836296592
226.836296592
226.836296592
226.836296592
226.836296592
226.836296592
226.836296592
226.836296592
226.836296599
226.836297027
226.83632249
226.837809611
226.875925999
441.406196161
3013.04980808
6258.9214243
11199.7538512
13192.5863103
14365.5964682
15017.6995746
15312.363284
15424.3596328
15483.2447105
15532.9758923
15580.2614995
15626.0896734
15670.443808
15713.3929795
15755.7947588
15796.3895011
15835.8690017
15874.3757277
15912.7336752
15949.3025076
15985.9054787
16020.6688795
16054.6009874
16088.5194621
16120.717425
16152.6938089
16182.6986861
16212.6311101
16241.6008944
16268.1977665
16294.5591274
16318.4547784
16341.9617091
16363.8543906
16384.3410727
16401.9807565
16418.9675709
16434.0196702
16447.1097929
16457.0400353
16466.2854042
16473.5277339
16478.8083452
16482.0226594
16483.1122615
226.836296592
226.836296592
226.836296592
226.836296592
226.836296592
226.836296592
226.836296592
226.836296592
226.836296592
226.836296592
226.836296592
226.836296592
226.836296592
226.836296592
226.836296592
226.836296592
226.836296592
226.836296592
226.836296592
226.836296621
226.836298317
226.836395141
226.841971485
226.937503574
1067.3500679
4819.22685108
7494.20177477
11914.517301
13537.5428315
14502.4248462
15003.9769139
15213.6727841
15298.0346238
15353.8726243
15404.4896515
15453.113412
15500.0206297
15545.431963
15589.4374068
15631.9669232
15674.0648411
15714.2537354
15753.4098381
15792.1887864
15829.1639716
15865.1966599
15901.1442541
15935.1321513
15969.2916062
16001.3053552
16033.3365888
16063.2655932
16093.0635086
16120.6459619
16148.2038745
16173.3140423
16197.9978513
16221.0882452
16241.6359376
16261.5830257
16279.9242825
16296.6660903
16310.1967506
16323.0329005
16333.8936562
16342.8983906
16348.7606387
16354.0111924
16357.2176886
16357.9356371
226.836296592
226.836296592
226.836296592
226.836296592
226.836296592
226.836296592
226.836296592
226.836296592
226.836296592
226.836296592
226.836296592
226.836296592
226.836296592
226.836296592
226.836296592
226.836296592
226.836296592
226.836296592
226.836296594
226.836296714
226.836303666
226.836684458
226.856822401
252.088737902
2391.26214709
5620.22196076
9916.87666342
12495.1946985
13826.7391328
14585.976987
14954.0141773
15099.4137613
15169.1427086
15224.4369183
15276.4899296
15326.312237
15374.3493976
15420.5973889
15465.4509998
15508.7947212
15550.7562084
15592.2027441
15631.7329338
15670.1698145
15707.3741652
15744.5703526
15779.763297
15814.8658438
15847.8559943
15880.894636
15911.7118498
15942.4865893
15971.0024196
15999.4114306
16025.4484205
16051.2090339
16075.6223465
16097.2544793
16118.5737643
16138.2919932
16154.9551089
16171.1663988
16185.5981181