/*--------------------------------*- C++ -*----------------------------------*\
| =========                 |                                                 |
| \\      /  F ield         | foam-extend: Open Source CFD                    |
|  \\    /   O peration     | Version:     4.1                                |
|   \\  /    A nd           | Web:         http://www.foam-extend.org         |
|    \\/     M anipulation  |                                                 |
\*---------------------------------------------------------------------------*/
FoamFile
{
    version     2.0;
    format      ascii;
    class       volVectorField;
    location    "0.0003";
    object      U;
}
// * * * * * * * * * * * * * * * * * * * * * * * * * * * * * * * * * * * * * //

dimensions      [0 1 -1 0 0 0 0];

internalField   nonuniform List<vector> 
8400
(
(16999.9999966 3.90833274332e-09 1.96476432849e-11)
(16999.9999966 3.96967701984e-09 1.95351783551e-11)
(16999.9999966 4.02985060945e-09 1.9421008387e-11)
(16999.9999967 4.08887120204e-09 1.93107469194e-11)
(16999.9999967 4.14675607757e-09 1.92095342988e-11)
(16999.9999967 4.20352331713e-09 1.9106710567e-11)
(16999.9999967 4.25919096456e-09 1.90075690253e-11)
(16999.9999967 4.31377693494e-09 1.89113931558e-11)
(16999.9999967 4.36729844354e-09 1.8816196816e-11)
(16999.9999967 4.41977299783e-09 1.87245024155e-11)
(16999.9999967 4.47121740362e-09 1.86339053282e-11)
(16999.9999967 4.52164835698e-09 1.85462988684e-11)
(16999.9999968 4.57108215679e-09 1.84614992862e-11)
(16999.9999968 4.61953483554e-09 1.83763369853e-11)
(16999.9999968 4.66702289343e-09 1.82984923174e-11)
(16999.9999968 4.71356212689e-09 1.82206706386e-11)
(16999.9999968 4.75916929639e-09 1.81438363033e-11)
(16999.9999968 4.80386010802e-09 1.80722283322e-11)
(16999.9999968 4.84765061785e-09 1.79995512797e-11)
(16999.9999968 4.89055619522e-09 1.79298945244e-11)
(16999.9999968 4.9325921727e-09 1.78573608742e-11)
(16999.9999968 4.97377409059e-09 1.77758238409e-11)
(16999.9999968 5.01414198855e-09 1.72718104263e-11)
(16999.9999968 5.05534383445e-09 -1.0737287187e-11)
(16999.9999968 5.20163984571e-09 -1.78349852803e-09)
(16999.9999964 1.16707827032e-08 -1.07674465071e-07)
(16999.9999693 3.76252530152e-07 -6.4659231509e-06)
(16999.9981688 1.371332702e-05 -0.000204331153585)
(16999.8945373 1.2128882034e-05 -0.00222742147536)
(16989.1512359 -0.00415227923334 -0.0271872283842)
(16848.8491968 -1.65747005006 -0.123006137118)
(15725.9600313 -10.2819735989 -0.11714794459)
(12592.8150818 -33.6731220299 0.00944606804796)
(8575.3445907 -50.8883917862 0.0486092339641)
(5150.91625441 -50.2293844676 0.0354354184082)
(2869.03719497 -30.0884392334 0.0222018344311)
(1644.44927898 4.0069230198 0.012556037145)
(1141.31075182 43.7249268383 0.00644292465005)
(983.330242339 82.656898129 0.00344104141423)
(932.379857415 118.689650353 0.00228370492884)
(904.8359266 151.685604358 0.00184899335622)
(880.797888749 181.935269852 0.00165237091793)
(856.374559922 209.765292336 0.00154020717098)
(830.903199164 235.482600449 0.0014579894115)
(804.322389432 259.366798931 0.00138431541202)
(776.75636632 281.666298145 0.00131047812279)
(748.175529483 302.594436199 0.00123097889656)
(718.765871157 322.354268946 0.00114429447866)
(688.842119291 341.097947333 0.00105182017024)
(658.394071095 358.963373046 0.000953023847243)
(627.482601522 376.065958458 0.000847515339611)
(596.268203625 392.498986473 0.000734740488273)
(564.616145831 408.331318021 0.000609979409278)
(532.545860125 423.634167117 0.000471210983068)
(500.24737703 438.444912039 0.000321514221934)
(467.690995092 452.770384051 0.000157438866857)
(435.006041953 466.617995934 -2.89174778912e-05)
(402.443777647 479.968335446 -0.000242762616182)
(369.89661171 492.778323321 -0.000490876036096)
(337.2916595 505.007642925 -0.000779865196916)
(304.768271331 516.582006855 -0.00111633059513)
(272.224695789 527.423135313 -0.00151442713541)
(239.691208277 537.445450633 -0.00199269903391)
(207.304838065 546.561312839 -0.00257100195936)
(175.224598076 554.660625472 -0.00327770818828)
(143.621702406 561.649180357 -0.00414756365628)
(112.703820199 567.426960691 -0.00522229894796)
(82.0813962488 571.9033513 -0.00656190802946)
(51.5608333819 575.029260899 -0.00819548784409)
(36.4572575154 576.716817417 -0.0096787103534)
(16999.999998 2.34974440145e-09 -1.06414713702e-12)
(16999.999998 2.3874280326e-09 -1.01726858393e-12)
(16999.999998 2.42441708676e-09 -9.70676825063e-13)
(16999.9999981 2.46072151136e-09 -9.26746057572e-13)
(16999.9999981 2.49635099949e-09 -8.82897026556e-13)
(16999.9999981 2.53131521889e-09 -8.40760981952e-13)
(16999.9999981 2.56562340542e-09 -8.00287493398e-13)
(16999.9999981 2.59928525515e-09 -7.60902782789e-13)
(16999.9999981 2.63231029222e-09 -7.22796301362e-13)
(16999.9999981 2.6647084031e-09 -6.85432157146e-13)
(16999.9999981 2.69648895708e-09 -6.49795747219e-13)
(16999.9999981 2.72766142073e-09 -6.15140795502e-13)
(16999.9999981 2.75823487449e-09 -5.80181879185e-13)
(16999.9999981 2.78821868905e-09 -5.47463466605e-13)
(16999.9999981 2.81762244142e-09 -5.15344667314e-13)
(16999.9999981 2.84645526223e-09 -4.84562634863e-13)
(16999.9999981 2.87472587979e-09 -4.55405641339e-13)
(16999.9999981 2.90244349158e-09 -4.25520626231e-13)
(16999.9999981 2.92961687289e-09 -3.98933061218e-13)
(16999.9999981 2.95625490506e-09 -3.73005555887e-13)
(16999.9999981 2.98236640835e-09 -3.47202313641e-13)
(16999.9999981 3.00796348831e-09 -3.28207280025e-13)
(16999.9999981 3.03327733821e-09 -7.84446148315e-13)
(16999.9999981 3.07246397071e-09 -3.09875793389e-11)
(16999.9999981 4.04272459267e-09 -1.91417777739e-09)
(16999.9999958 6.55570372172e-08 -1.08130428059e-07)
(16999.9998408 4.1867010029e-06 -6.5709245971e-06)
(16999.9899867 0.000248288675569 -0.000108102434016)
(16999.1478669 0.0226132419225 -0.00118873913434)
(16964.170236 0.606354928653 -0.0152920098585)
(16591.4609121 5.19644170716 -0.0399812669477)
(14595.2317831 33.2735012428 -0.0217356180183)
(10780.3993268 90.9687731556 0.00579051206061)
(6873.39467381 155.200998924 0.0100007295577)
(3913.46687954 212.341156966 0.00749198120482)
(2114.97590244 259.11241186 0.00492849615222)
(1251.51539968 296.480206531 0.00295330617978)
(939.475273737 326.64184742 0.00173423783715)
(841.798669488 352.738036554 0.00120400517967)
(799.241337926 376.918874296 0.00104220737834)
(768.117234976 399.876019603 0.000997841959136)
(739.354919942 421.799845801 0.000976747910621)
(711.151033071 442.782261247 0.000954775205473)
(683.154585809 462.899508994 0.000926421513001)
(655.308584793 482.223829722 0.000890905142923)
(627.6074447 500.825436335 0.00084833615796)
(600.075953537 518.768772826 0.000798426760521)
(572.759925673 536.120369986 0.000741004972628)
(545.689059196 552.931993653 0.000676072752478)
(518.83218465 569.249891669 0.000603139461904)
(492.170446151 585.111757224 0.000521682237085)
(465.704154134 600.541540842 0.000431112724693)
(439.422726722 615.552398987 0.000330296230932)
(413.42436323 630.151844363 0.000218242934599)
(387.519104979 644.336509238 9.43592737073e-05)
(361.75174588 658.099634168 -4.21137343085e-05)
(336.407117977 671.391816124 -0.000192210790011)
(311.447835624 684.176189738 -0.000356924508284)
(286.843587543 696.398126434 -0.000536958039159)
(262.506273341 708.004317537 -0.000732522819413)
(238.390280533 718.930338595 -0.000943396357478)
(214.51814151 729.104999654 -0.00116909406855)
(191.041499444 738.447459954 -0.00140827283944)
(167.841037462 746.881939057 -0.00165791160777)
(144.960445917 754.340804315 -0.0019128654295)
(122.570302939 760.740638281 -0.00216544765039)
(100.521497306 766.030186716 -0.00240485782508)
(78.7896264413 770.158439848 -0.00261590504895)
(57.4511465899 773.093178608 -0.00276745318131)
(47.066513096 774.626475936 -0.00278322224238)
(16999.9999987 1.1626098632e-09 -1.17340098153e-12)
(16999.9999987 1.18232982102e-09 -1.16862694461e-12)
(16999.9999987 1.2017151208e-09 -1.16387387878e-12)
(16999.9999987 1.22076843117e-09 -1.15933279514e-12)
(16999.9999987 1.23949407058e-09 -1.1547717063e-12)
(16999.9999987 1.25789597988e-09 -1.15021111774e-12)
(16999.9999987 1.27597725382e-09 -1.14566904173e-12)
(16999.9999987 1.29374135903e-09 -1.14035341999e-12)
(16999.9999987 1.31119181591e-09 -1.13570777801e-12)
(16999.9999987 1.32833266036e-09 -1.13111454073e-12)
(16999.9999987 1.34516741305e-09 -1.12545521662e-12)
(16999.9999987 1.36170014079e-09 -1.12006465047e-12)
(16999.9999987 1.37793444115e-09 -1.11551591753e-12)
(16999.9999987 1.39387398296e-09 -1.11080597011e-12)
(16999.9999987 1.40952286412e-09 -1.10640774172e-12)
(16999.9999987 1.42488492465e-09 -1.10227365142e-12)
(16999.9999987 1.43996395572e-09 -1.09768785754e-12)
(16999.9999987 1.4547635747e-09 -1.0932072118e-12)
(16999.9999987 1.46928786649e-09 -1.08903798361e-12)
(16999.9999987 1.48354063941e-09 -1.08532921379e-12)
(16999.9999987 1.49752625346e-09 -1.08185777101e-12)
(16999.9999987 1.51129013445e-09 -1.08800759815e-12)
(16999.9999987 1.52753414484e-09 -1.74218104694e-12)
(16999.9999987 1.72111721193e-09 -4.1816212151e-11)
(16999.9999985 1.34995913444e-08 -2.43521233001e-09)
(16999.9999838 7.71551970821e-07 -1.31264811456e-07)
(16999.9989868 5.20660033985e-05 -7.62716555926e-06)
(16999.9403623 0.0029868715428 -8.73857236432e-05)
(16993.8785323 0.315316257342 -0.00120764591908)
(16894.4414908 4.18983727516 -0.00902754729896)
(15998.1974815 39.4757963724 -0.0137589738884)
(13111.6536278 150.181466832 -0.00311509506562)
(9070.81048329 309.010969295 0.003257667963)
(5475.08953525 452.803170189 0.00301454812563)
(3003.50245612 556.585763616 0.00212048559829)
(1634.6432997 621.433404969 0.00135612276843)
(1051.21466047 657.937502292 0.000818963946741)
(860.213896542 679.281993877 0.000542307144549)
(793.940193117 695.397339265 0.000454862108503)
(755.694551183 710.163052363 0.000445525561946)
(723.206439517 724.519937899 0.000453500502604)
(692.37896912 738.652700714 0.000460190242351)
(662.468016352 752.605872265 0.000461140103124)
(633.313005801 766.396840578 0.000455357337247)
(604.848941524 780.034488089 0.000442611243276)
(577.054274588 793.52325609 0.000422740469711)
(549.965577138 806.862308213 0.000395487982087)
(523.613432276 820.049648665 0.000360535986309)
(497.950780308 833.08333317 0.000317533464873)
(472.899071233 845.959430451 0.000266094426625)
(448.359924449 858.671671628 0.000205859690646)
(424.269911425 871.206160746 0.000136472136211)
(400.655601602 883.539491573 5.77274748549e-05)
(377.54507603 895.646595761 -3.03683806118e-05)
(355.044118046 907.476773239 -0.000127974747568)
(332.951882892 919.0099692 -0.000235103609696)
(311.22593233 930.201956947 -0.000351224608044)
(290.033953036 940.987367316 -0.000475534840176)
(269.269865481 951.310972089 -0.000607058999864)
(248.953419721 961.109325517 -0.00074465311093)
(229.076362234 970.321244647 -0.000886883634497)
(209.535084856 978.893810135 -0.00103173863158)
(190.243774895 986.761385317 -0.00117688018524)
(171.358022907 993.853149235 -0.00131974622163)
(152.779760334 1000.1183757 -0.00145716558768)
(134.560585862 1005.5024905 -0.00158568409514)
(116.863187054 1009.95411368 -0.00170202053818)
(99.4887656371 1013.45403188 -0.00180306461057)
(82.4204802101 1015.98300576 -0.00188456145083)
(74.0250038091 1017.27960595 -0.00192368688962)
(16999.9999991 6.35967186345e-10 -4.8043927825e-13)
(16999.9999991 6.46993326037e-10 -4.83697068485e-13)
(16999.9999991 6.57840908531e-10 -4.86808614398e-13)
(16999.9999991 6.6851102982e-10 -4.89743244494e-13)
(16999.9999991 6.79005557369e-10 -4.92956699307e-13)
(16999.9999991 6.89325550419e-10 -4.95609397228e-13)
(16999.9999991 6.99473458411e-10 -4.98495854889e-13)
(16999.9999991 7.09450450949e-10 -5.00741598284e-13)
(16999.9999991 7.19258185126e-10 -5.03093168809e-13)
(16999.9999991 7.28898512617e-10 -5.04740270467e-13)
(16999.9999991 7.38373181202e-10 -5.06854400574e-13)
(16999.9999991 7.47684328729e-10 -5.09192475534e-13)
(16999.9999991 7.56833824539e-10 -5.10851724126e-13)
(16999.9999991 7.65823159056e-10 -5.13150200259e-13)
(16999.9999991 7.74654246423e-10 -5.1495547499e-13)
(16999.9999991 7.8332899434e-10 -5.17383797335e-13)
(16999.9999991 7.91849606798e-10 -5.19268572332e-13)
(16999.9999991 8.00217693493e-10 -5.20301175949e-13)
(16999.9999991 8.08434879672e-10 -5.22119701894e-13)
(16999.9999991 8.16503050096e-10 -5.23541557233e-13)
(16999.9999991 8.2442794459e-10 -5.25509678853e-13)
(16999.9999991 8.32455625403e-10 -5.38171283545e-13)
(16999.9999991 8.56265339034e-10 -1.26901165103e-12)
(16999.9999991 1.89257172389e-09 -4.74957626297e-11)
(16999.9999982 6.69476249427e-08 -2.83018672705e-09)
(16999.9999446 4.09757815808e-06 -1.69058022694e-07)
(16999.9964464 0.000264610255418 -5.88666713504e-06)
(16999.7964184 0.0148781322399 -6.75318997611e-05)
(16979.5195529 1.49964231286 -0.00114481842285)
(16763.6110625 15.5696242325 -0.00440447116173)
(15292.8301396 111.183945149 -0.0038200816354)
(11816.4879636 332.061144528 3.22288080162e-05)
(7795.38425291 588.039296794 0.00123154253621)
(4542.56456228 795.582482649 0.000981748701044)
(2458.85639438 930.287467107 0.000666245594644)
(1393.77915743 1001.73661679 0.000417460750177)
(983.051315264 1031.85111659 0.000259477588897)
(853.276900906 1043.76664785 0.000193227089536)
(800.251888697 1050.8053669 0.000181193447147)
(763.263932244 1057.03926052 0.000186452060015)
(730.037891694 1063.29646634 0.000193592161392)
(698.349262085 1069.7264497 0.000198422915176)
(667.786448605 1076.35551652 0.000199643188428)
(638.222145423 1083.18667769 0.000196490699237)
(609.586609988 1090.21661239 0.000188306967283)
(581.852763311 1097.43527594 0.000174495328638)
(555.034596746 1104.82574502 0.000154516368604)
(529.119149894 1112.36725149 0.000127882335576)
(504.029765741 1120.04159113 9.41715732957e-05)
(479.688143968 1127.82717467 5.30144088317e-05)
(456.015518142 1135.70123532 4.12713696447e-06)
(432.969920062 1143.63998096 -5.26069286066e-05)
(410.656479839 1151.59239006 -0.000117190544741)
(388.886491315 1159.53490366 -0.000189474957222)
(367.658374138 1167.42578125 -0.000269128912784)
(347.136985934 1175.20228608 -0.000355700624569)
(327.149813947 1182.83573349 -0.00044847775052)
(307.613940824 1190.27649457 -0.000546451017384)
(288.505007987 1197.4692831 -0.000648415836237)
(269.895056228 1204.35307298 -0.000752933700974)
(251.920597481 1210.85250384 -0.000858462222739)
(234.304423291 1216.93676684 -0.000963395888205)
(216.906596 1222.56866385 -0.00106592392805)
(199.868303477 1227.68753836 -0.0011641044984)
(183.142904307 1232.24754067 -0.00125604886984)
(166.838256373 1236.20500284 -0.00133988135266)
(151.01090815 1239.52027445 -0.00141382051562)
(135.602610556 1242.17453016 -0.00147636468569)
(120.520522955 1244.15960027 -0.00152597508698)
(113.032067361 1245.16722015 -0.00154992724978)
(16999.9999993 3.84935959874e-10 -1.81198346295e-13)
(16999.9999993 3.91650603269e-10 -1.83647526812e-13)
(16999.9999993 3.98258728608e-10 -1.85916107664e-13)
(16999.9999993 4.04760761495e-10 -1.88078765361e-13)
(16999.9999993 4.11157565745e-10 -1.90392075824e-13)
(16999.9999993 4.17450234606e-10 -1.92850152705e-13)
(16999.9999993 4.2363959727e-10 -1.95205207927e-13)
(16999.9999993 4.29726475756e-10 -1.97170701122e-13)
(16999.9999993 4.35711923597e-10 -1.99151477508e-13)
(16999.9999993 4.41596959547e-10 -2.01468104818e-13)
(16999.9999993 4.47382394701e-10 -2.03276579745e-13)
(16999.9999993 4.53069202622e-10 -2.05147985099e-13)
(16999.9999993 4.58658387189e-10 -2.06880207652e-13)
(16999.9999993 4.64150863741e-10 -2.08593717207e-13)
(16999.9999993 4.69547878576e-10 -2.10414366832e-13)
(16999.9999993 4.74850394275e-10 -2.11903917276e-13)
(16999.9999993 4.80059249451e-10 -2.13431832565e-13)
(16999.9999993 4.85176205553e-10 -2.14980906836e-13)
(16999.9999993 4.90202178673e-10 -2.16566610337e-13)
(16999.9999993 4.9513809031e-10 -2.17655782685e-13)
(16999.9999993 4.99997486659e-10 -2.19410336095e-13)
(16999.9999993 5.05544535969e-10 -2.36066044955e-13)
(16999.9999993 5.60544935811e-10 -1.22002095148e-12)
(16999.9999993 3.83806374538e-09 -6.20721840655e-11)
(16999.9999971 2.19531984934e-07 -3.4870360474e-09)
(16999.9998488 1.47931103103e-05 -2.11225738714e-07)
(16999.9903151 0.000946809438404 -3.82117531709e-06)
(16999.1739465 0.0812586979571 -5.0958123734e-05)
(16964.4385591 3.3686236238 -0.000752711329768)
(16593.5528486 36.9228179454 -0.00206196812548)
(14600.4557066 214.831949239 -0.00113679075953)
(10789.003638 550.292588013 0.000300116653439)
(6887.84957333 891.56354872 0.000506195637905)
(3935.04434529 1148.23183465 0.000368259512178)
(2144.58209985 1302.42649643 0.000236379883006)
(1289.50921714 1373.98605138 0.000139714803253)
(983.254648038 1396.40391738 8.53954834822e-05)
(885.242583544 1400.10977264 6.74581270222e-05)
(838.357913968 1399.59830019 6.70382129745e-05)
(801.920589189 1398.65742388 7.05726240641e-05)
(768.244980004 1397.98326879 7.33394292255e-05)
(736.040941039 1397.6786826 7.40110978637e-05)
(705.03870583 1397.75505267 7.19413485046e-05)
(675.137226604 1398.20972191 6.65568931391e-05)
(646.293875095 1399.03345273 5.72805417759e-05)
(618.471633621 1400.21503435 4.35421866343e-05)
(591.624207932 1401.74297332 2.48093772294e-05)
(565.707357532 1403.60116881 5.98855145348e-07)
(540.650370202 1405.77246333 -2.94891845652e-05)
(516.397156096 1408.24076853 -6.57306640597e-05)
(493.009790548 1410.96303889 -0.000108328809275)
(470.265126957 1413.93567935 -0.000157382983485)
(448.118106508 1417.13161483 -0.00021282948368)
(426.725014178 1420.49456876 -0.000274453679253)
(406.044084529 1423.99523837 -0.000341847188264)
(386.105341432 1427.58424115 -0.000414384112382)
(366.806490804 1431.23240444 -0.000491268322619)
(347.989964289 1434.90491469 -0.000571583929061)
(329.667082938 1438.56027513 -0.000654284576488)
(311.692450211 1442.16812841 -0.000738119742796)
(294.149898782 1445.67445663 -0.000821713361189)
(277.250706842 1449.00820345 -0.000903655843652)
(260.797736785 1452.15315756 -0.00098250195906)
(244.653096623 1455.08588595 -0.00105681987989)
(228.81935289 1457.77540394 -0.00112524522402)
(213.392425815 1460.18703296 -0.00118646093369)
(198.427658143 1462.2825758 -0.00123929056027)
(183.876102621 1464.0479694 -0.00128277408635)
(169.649627751 1465.47724808 -0.00131609862549)
(162.60125174 1466.19365539 -0.00133226822853)
(16999.9999994 2.53387921989e-10 -7.70077531008e-14)
(16999.9999994 2.57805526844e-10 -7.8246645847e-14)
(16999.9999994 2.62153799844e-10 -7.92447277659e-14)
(16999.9999994 2.66432890413e-10 -8.0138837602e-14)
(16999.9999994 2.70643268379e-10 -8.12454186398e-14)
(16999.9999994 2.74785743102e-10 -8.2362117267e-14)
(16999.9999994 2.78860024189e-10 -8.28991898814e-14)
(16999.9999994 2.82867063868e-10 -8.39354241956e-14)
(16999.9999994 2.86807330542e-10 -8.51717592528e-14)
(16999.9999994 2.9068159699e-10 -8.61972244901e-14)
(16999.9999994 2.94490536688e-10 -8.74614638611e-14)
(16999.9999994 2.98234777484e-10 -8.83159306374e-14)
(16999.9999994 3.01914966137e-10 -8.96308304891e-14)
(16999.9999994 3.05531442902e-10 -9.0523785225e-14)
(16999.9999994 3.09084744657e-10 -9.10294330969e-14)
(16999.9999994 3.12576172766e-10 -9.16590029656e-14)
(16999.9999994 3.16005684259e-10 -9.26923828549e-14)
(16999.9999994 3.19373982921e-10 -9.35559299815e-14)
(16999.9999994 3.22682267086e-10 -9.45055044162e-14)
(16999.9999994 3.25932052331e-10 -9.53839960891e-14)
(16999.9999994 3.29160217455e-10 -9.63705601897e-14)
(16999.9999994 3.34782836949e-10 -1.14717864227e-13)
(16999.9999994 5.01695514473e-10 -1.20000423999e-12)
(16999.9999993 1.12109450938e-08 -6.78229650173e-11)
(16999.9999937 6.99072643466e-07 -3.80127982752e-09)
(16999.9996181 4.63926624558e-05 -2.3604779784e-07)
(16999.9772542 0.00275206858081 -3.46729852183e-06)
(16997.7949148 0.268253352919 -4.52002129894e-05)
(16945.8790926 6.27123378934 -0.000461123889913)
(16381.8899555 69.9317686566 -0.000933803450836)
(13949.4859659 343.198910943 -0.000325163690282)
(9976.74804962 787.137375083 0.000203680388868)
(6231.08221023 1201.87156587 0.000213157084212)
(3532.54708362 1496.9604999 0.000144811162492)
(1967.93967336 1663.5156049 8.63335562515e-05)
(1262.24549925 1732.27607728 4.54734000217e-05)
(1022.10233008 1747.47023184 2.45582207425e-05)
(941.530166116 1744.45124625 1.86393465461e-05)
(897.691291301 1737.73439161 1.8628752905e-05)
(861.380662576 1730.78526572 1.91605316654e-05)
(827.396470006 1724.20734984 1.84802645118e-05)
(794.859309052 1718.08940866 1.5962375928e-05)
(763.555696562 1712.44270382 1.1162896257e-05)
(733.361274193 1707.26908575 3.63182271385e-06)
(704.190777627 1702.56555208 -7.09621981336e-06)
(676.037564404 1698.31903682 -2.14869075748e-05)
(648.89440921 1694.51719328 -3.99754191269e-05)
(622.691369969 1691.15948231 -6.29398246341e-05)
(597.457290718 1688.21481801 -9.07140078589e-05)
(572.973784906 1685.69403543 -0.000123555953519)
(549.228188451 1683.57948385 -0.00016161009845)
(526.398028587 1681.82267312 -0.000204909538583)
(504.342272949 1680.4230838 -0.000253353536922)
(482.990243772 1679.35981894 -0.00030667800819)
(462.29075961 1678.61464725 -0.000364456290486)
(442.350453274 1678.13500219 -0.000426120414045)
(422.981321597 1677.91471301 -0.000490966049453)
(404.124544526 1677.93062062 -0.000558151457876)
(385.935335606 1678.13322164 -0.000626713433384)
(368.278570789 1678.50639055 -0.000695603201057)
(351.078726743 1679.03433549 -0.000763668088263)
(334.297773355 1679.69188709 -0.000829683531608)
(317.984124 1680.43635102 -0.000892463159119)
(302.194658669 1681.24023576 -0.000950880696231)
(287.013771228 1682.07275192 -0.00100384837611)
(272.163824506 1682.9485215 -0.00105035559383)
(257.54091775 1683.8631882 -0.00108952888006)
(243.288288799 1684.78341518 -0.00112065076211)
(229.347772125 1685.70625848 -0.00114316744363)
(222.486079929 1686.16381854 -0.00115401727953)
(16999.9999995 1.78208434533e-10 -3.27380685915e-14)
(16999.9999995 1.81307527846e-10 -3.31616538506e-14)
(16999.9999995 1.84357784912e-10 -3.39479088885e-14)
(16999.9999995 1.87358998025e-10 -3.42552158738e-14)
(16999.9999995 1.9031130382e-10 -3.4651529985e-14)
(16999.9999995 1.93216197129e-10 -3.56880638311e-14)
(16999.9999995 1.96073565584e-10 -3.62222004065e-14)
(16999.9999995 1.98883702766e-10 -3.64288510919e-14)
(16999.9999995 2.01647193665e-10 -3.66597609373e-14)
(16999.9999995 2.0436420662e-10 -3.73599258844e-14)
(16999.9999995 2.07035290615e-10 -3.77709151677e-14)
(16999.9999995 2.09660703231e-10 -3.83683636174e-14)
(16999.9999995 2.12241375375e-10 -3.90187180064e-14)
(16999.9999995 2.14777255012e-10 -3.93286838644e-14)
(16999.9999995 2.17269184393e-10 -3.9951610944e-14)
(16999.9999995 2.19717524486e-10 -4.00182099491e-14)
(16999.9999995 2.22123080109e-10 -4.07298202154e-14)
(16999.9999995 2.24486057306e-10 -4.11689643587e-14)
(16999.9999995 2.26806298551e-10 -4.174719353e-14)
(16999.9999995 2.29086461265e-10 -4.21353949722e-14)
(16999.9999995 2.31418821897e-10 -4.29780641462e-14)
(16999.9999995 2.39759322848e-10 -6.03902611529e-14)
(16999.9999995 6.39344878315e-10 -1.11762089746e-12)
(16999.9999993 2.63887378523e-08 -6.54795073016e-11)
(16999.9999879 1.68194143579e-06 -3.60532626649e-09)
(16999.999209 0.000114232488853 -2.16846223258e-07)
(16999.9523261 0.00685641521956 -2.82965085203e-06)
(16995.0199207 0.719431530112 -3.87028515558e-05)
(16907.5034547 12.811487364 -0.00029197358358)
(16093.9361812 123.34404671 -0.000423838908367)
(13317.7764831 498.010507977 -7.81397026862e-05)
(9327.76886542 1035.54639512 0.000106795351598)
(5742.0678009 1513.77939157 8.63675097348e-05)
(3259.09828989 1839.29678682 5.31683310693e-05)
(1874.36391203 2013.33862601 2.72436133964e-05)
(1280.76127983 2077.6082479 1.0097747982e-05)
(1085.77633897 2086.08350127 1.78173272461e-06)
(1016.28771573 2077.26083419 -8.58454075149e-07)
(974.161701262 2065.2066188 -1.8624928867e-06)
(937.705318271 2053.05634426 -3.32889016434e-06)
(903.259028034 2041.33813612 -6.00510731668e-06)
(870.242855312 2030.1276426 -1.02867727305e-05)
(838.475013398 2019.44168642 -1.65261500268e-05)
(807.815866795 2009.28874308 -2.50828518688e-05)
(778.179055603 1999.6762308 -3.63191552764e-05)
(749.553930886 1990.58716674 -5.05997860127e-05)
(722.06687177 1981.99526665 -6.82775174358e-05)
(695.451385299 1973.92846077 -8.96599722447e-05)
(669.586386839 1966.39349716 -0.000115003018173)
(644.689400598 1959.34393061 -0.000144496564138)
(620.682941076 1952.78681613 -0.000178233989039)
(597.503396456 1946.71412435 -0.000216194406823)
(575.100441425 1941.12122507 -0.000258239623514)
(553.532217711 1935.97605547 -0.000304115386143)
(532.58366555 1931.29861117 -0.00035343663775)
(512.232258446 1927.07551549 -0.000405690390313)
(492.655491528 1923.25828356 -0.000460241545044)
(473.72460944 1919.85535901 -0.000516344201089)
(455.386247431 1916.85678056 -0.000573151772164)
(437.590940272 1914.25740533 -0.000629739378298)
(420.421556891 1912.02037018 -0.000685136806509)
(403.647094335 1910.1669909 -0.000738350438438)
(387.290820196 1908.68038121 -0.000788394752903)
(371.595717527 1907.51091268 -0.000834309625566)
(356.412715797 1906.66649111 -0.000875198339718)
(341.680462091 1906.14170952 -0.000910255950324)
(327.343486784 1905.94153086 -0.0009387873726)
(313.371325867 1906.06148316 -0.000960225851847)
(299.786178955 1906.49311602 -0.00097415014268)
(293.021982861 1906.71812192 -0.000980734053886)
(16999.9999996 1.3191678998e-10 -1.20911854192e-14)
(16999.9999996 1.34208822568e-10 -1.24950750158e-14)
(16999.9999996 1.36463463862e-10 -1.27070624248e-14)
(16999.9999996 1.3868127962e-10 -1.30866601808e-14)
(16999.9999996 1.40862770767e-10 -1.27063241069e-14)
(16999.9999996 1.43008319318e-10 -1.2983016973e-14)
(16999.9999996 1.45118332564e-10 -1.32081058633e-14)
(16999.9999996 1.47193131221e-10 -1.35390387124e-14)
(16999.9999996 1.49233092027e-10 -1.34615776196e-14)
(16999.9999996 1.51238739299e-10 -1.36246835594e-14)
(16999.9999996 1.53210170546e-10 -1.39155430524e-14)
(16999.9999996 1.55148750629e-10 -1.38925367852e-14)
(16999.9999996 1.57054060738e-10 -1.41543664182e-14)
(16999.9999996 1.58926646858e-10 -1.42863165687e-14)
(16999.9999996 1.60766686696e-10 -1.48433765134e-14)
(16999.9999996 1.6257417773e-10 -1.54292251436e-14)
(16999.9999996 1.64349990505e-10 -1.57524367877e-14)
(16999.9999996 1.66094503727e-10 -1.60482888762e-14)
(16999.9999996 1.67807992092e-10 -1.61778343756e-14)
(16999.9999996 1.69494019815e-10 -1.65390181291e-14)
(16999.9999996 1.71352008348e-10 -1.69349750887e-14)
(16999.9999996 1.86546420685e-10 -2.97626422994e-14)
(16999.9999996 1.07802984551e-09 -7.94713284324e-13)
(16999.9999992 5.91757993493e-08 -4.57049317688e-11)
(16999.9999771 3.77921846571e-06 -2.41349132445e-09)
(16999.9984905 0.000252820439131 -1.36960402843e-07)
(16999.9113979 0.0147787369956 -1.47352161655e-06)
(16990.785649 1.54206185709 -2.10937337522e-05)
(16862.873151 22.106233232 -0.000116972889598)
(15805.9780051 190.706438963 -0.000138571201965)
(12762.318517 671.056894199 -2.26862274398e-05)
(8784.31300314 1295.99564632 2.55601383573e-05)
(5365.1246338 1827.2477268 1.76176144823e-05)
(3072.64760889 2175.78392432 7.94171441575e-06)
(1837.8255867 2353.0906588 6.7821572986e-07)
(1331.49550018 2411.62017884 -4.11458719683e-06)
(1168.51007181 2413.79054046 -6.7156486969e-06)
(1106.1046867 2399.7958597 -8.27734996988e-06)
(1064.85480317 2382.97096509 -9.98181141627e-06)
(1028.16600871 2366.13673444 -1.24549538841e-05)
(993.282544078 2349.77531758 -1.60316673688e-05)
(959.758695845 2333.9661278 -2.09912796831e-05)
(927.455653033 2318.73291577 -2.7614967949e-05)
(896.355530345 2304.06345101 -3.61942753948e-05)
(866.212469459 2289.99771255 -4.70246799095e-05)
(836.954668716 2276.540714 -6.03961046609e-05)
(808.752373345 2263.6549323 -7.65795114507e-05)
(781.497816809 2251.34597885 -9.58116231971e-05)
(755.17540284 2239.61989033 -0.000118279518697)
(729.771599382 2228.4718155 -0.000144106591654)
(705.248603083 2217.90497708 -0.000173339199102)
(681.649872901 2207.89976262 -0.00020593245267)
(658.749249597 2198.49310891 -0.000241739283901)
(636.540205382 2189.68248321 -0.000280512369696)
(615.173414978 2181.43416837 -0.000321892082808)
(594.487407775 2173.77836504 -0.000365415122905)
(574.480854748 2166.71114628 -0.000410525250788)
(555.20893743 2160.21185467 -0.000456569959254)
(536.765827778 2154.26475864 -0.000502814568897)
(518.816341601 2148.92654123 -0.000548467060091)
(501.264574514 2144.21222891 -0.000592707466902)
(484.344141518 2140.07607256 -0.000634689441317)
(467.998964209 2136.53199877 -0.00067358100632)
(452.201043221 2133.58125451 -0.000708598349962)
(436.911637547 2131.21992479 -0.000739001159273)
(422.140136017 2129.44612531 -0.000764113418334)
(407.877602566 2128.25854323 -0.000783361221183)
(394.097495782 2127.65806094 -0.000796283994201)
(380.772727887 2127.64462439 -0.000802551080876)
(374.052330856 2127.6599038 -0.000805329476597)
(16999.9999996 1.01630479373e-10 -2.68483627285e-15)
(16999.9999996 1.03395885337e-10 -2.68379480083e-15)
(16999.9999996 1.05132626347e-10 -2.81587970632e-15)
(16999.9999996 1.06840422649e-10 -2.92974721351e-15)
(16999.9999996 1.08520103719e-10 -2.81542360273e-15)
(16999.9999996 1.10171996062e-10 -3.02260257233e-15)
(16999.9999996 1.11796418316e-10 -3.00206726593e-15)
(16999.9999996 1.13393339226e-10 -3.31494502491e-15)
(16999.9999996 1.14963179801e-10 -3.42587680437e-15)
(16999.9999996 1.16506096882e-10 -3.92859736085e-15)
(16999.9999996 1.18022505166e-10 -4.05134071783e-15)
(16999.9999996 1.19513408466e-10 -3.9031535163e-15)
(16999.9999996 1.2097865091e-10 -4.01710036121e-15)
(16999.9999996 1.2241910005e-10 -4.10106973455e-15)
(16999.9999996 1.23834028553e-10 -4.34822464411e-15)
(16999.9999996 1.25223802082e-10 -4.33036627496e-15)
(16999.9999996 1.26590001986e-10 -4.56490262448e-15)
(16999.9999996 1.27931515245e-10 -5.08301299745e-15)
(16999.9999996 1.29248848426e-10 -5.24117763595e-15)
(16999.9999996 1.30549244958e-10 -5.41403425367e-15)
(16999.9999996 1.32243933693e-10 -5.63674725176e-15)
(16999.9999996 1.61125936901e-10 -7.93103505329e-15)
(16999.9999996 1.94927359263e-09 -1.01432504242e-13)