/*--------------------------------*- C++ -*----------------------------------*\
| =========                 |                                                 |
| \\      /  F ield         | foam-extend: Open Source CFD                    |
|  \\    /   O peration     | Version:     4.1                                |
|   \\  /    A nd           | Web:         http://www.foam-extend.org         |
|    \\/     M anipulation  |                                                 |
\*---------------------------------------------------------------------------*/
FoamFile
{
    version     2.0;
    format      ascii;
    class       volScalarField;
    location    "0.0009";
    object      eMoins;
}
// * * * * * * * * * * * * * * * * * * * * * * * * * * * * * * * * * * * * * //

dimensions      [0 0 0 0 0 0 0];

internalField   nonuniform List<scalar> 
8400
(
9.91207428248e-163
9.91207428254e-163
9.91207428259e-163
9.91207428265e-163
9.9120742827e-163
9.91207428275e-163
9.9120742828e-163
9.91207428285e-163
9.9120742829e-163
9.91207428295e-163
9.912074283e-163
9.91207428304e-163
9.91207428309e-163
9.91207428314e-163
9.91207428318e-163
9.91207428324e-163
9.91207428419e-163
9.91207433593e-163
9.91207729463e-163
9.9122404e-163
9.92139738823e-163
1.00979007067e-162
1.123906581e-62
1.56095171091e-11
4.26219034821e-08
9.85079363392e-06
1.88584580718e-05
2.35010123452e-05
2.55038013762e-05
2.62896868279e-05
2.65609897332e-05
2.6650560642e-05
2.66861867282e-05
2.67077799214e-05
2.67249670872e-05
2.67402931402e-05
2.6754501078e-05
2.67679940348e-05
2.67810210288e-05
2.6793783769e-05
2.680639177e-05
2.68190464934e-05
2.68318912703e-05
2.68450360337e-05
2.68585879328e-05
2.68726416024e-05
2.68872793004e-05
2.68996544512e-05
2.69156238609e-05
2.69322492926e-05
2.69495904895e-05
2.69676297762e-05
2.69863275203e-05
2.70056117851e-05
2.70253755881e-05
2.70455279842e-05
2.70658799253e-05
2.70862318949e-05
2.71063770168e-05
2.71259992712e-05
2.71449350589e-05
2.71629322202e-05
2.71797346197e-05
2.71951215253e-05
2.72088410777e-05
2.72206721426e-05
2.72304421193e-05
2.72380064393e-05
2.72432814096e-05
2.72560560514e-05
9.91207426524e-163
9.91207426526e-163
9.91207426528e-163
9.9120742653e-163
9.91207426532e-163
9.91207426534e-163
9.91207426536e-163
9.91207426538e-163
9.9120742654e-163
9.91207426542e-163
9.91207426544e-163
9.91207426546e-163
9.91207426548e-163
9.9120742655e-163
9.91207426552e-163
9.91207426561e-163
9.91207426989e-163
9.91207451342e-163
9.91208840277e-163
9.91284794295e-163
9.95478922068e-163
1.04920618845e-162
2.73156503955e-20
3.71685359363e-09
2.6302663743e-06
1.40315197929e-05
2.12795206571e-05
2.4694996636e-05
2.60906570818e-05
2.65997297313e-05
2.67600753325e-05
2.68102372491e-05
2.68308765167e-05
2.68457325828e-05
2.68594600241e-05
2.68730327272e-05
2.6886615128e-05
2.69032374241e-05
2.69171215738e-05
2.69312199205e-05
2.69456037654e-05
2.69603167894e-05
2.69754131227e-05
2.69909482894e-05
2.70069730464e-05
2.70235382019e-05
2.7040684966e-05
2.70584386079e-05
2.70768667845e-05
2.70959121179e-05
2.71155597492e-05
2.71357504753e-05
2.71563546352e-05
2.71773563695e-05
2.71986341752e-05
2.72200842185e-05
2.72415245344e-05
2.72627387714e-05
2.72835169574e-05
2.73035524549e-05
2.73227169592e-05
2.73407838987e-05
2.73575255684e-05
2.73727670182e-05
2.7386256605e-05
2.73978200554e-05
2.7407309723e-05
2.74146087691e-05
2.74196548171e-05
2.74301199093e-05
9.91207425672e-163
9.91207425673e-163
9.91207425674e-163
9.91207425676e-163
9.91207425677e-163
9.91207425678e-163
9.9120742568e-163
9.91207425681e-163
9.91207425682e-163
9.91207425683e-163
9.91207425684e-163
9.91207425686e-163
9.91207425687e-163
9.91207425688e-163
9.9120742569e-163
9.9120742573e-163
9.91207428005e-163
9.91207558726e-163
9.91214856971e-163
9.91624204584e-163
1.00268927146e-162
4.39187825659e-63
6.3682112929e-13
1.52139048222e-08
7.71328141734e-06
1.77261221024e-05
2.31563608962e-05
2.55251109794e-05
2.64508957453e-05
2.67591124982e-05
2.6846729468e-05
2.68760113169e-05
2.68891274994e-05
2.6899703429e-05
2.69099590545e-05
2.69233332592e-05
2.69341245487e-05
2.69453968357e-05
2.69571305345e-05
2.6969352497e-05
2.69820978794e-05
2.69954052885e-05
2.7009317975e-05
2.70238732196e-05
2.70391045297e-05
2.70550358858e-05
2.70717250241e-05
2.70891283581e-05
2.71072359359e-05
2.71260186791e-05
2.71453630722e-05
2.71652634004e-05
2.71856355778e-05
2.72063823021e-05
2.72274103112e-05
2.72485045374e-05
2.72694913491e-05
2.72900961714e-05
2.73101625275e-05
2.73295274306e-05
2.734797663e-05
2.7365348265e-05
2.73813936891e-05
2.73959105259e-05
2.7408722119e-05
2.74196728311e-05
2.74286315987e-05
2.74354838464e-05
2.74402076589e-05
2.74491001037e-05
9.91207425139e-163
9.9120742514e-163
9.91207425141e-163
9.91207425141e-163
9.91207425142e-163
9.91207425143e-163
9.91207425144e-163
9.91207425145e-163
9.91207425146e-163
9.91207425147e-163
9.91207425148e-163
9.91207425149e-163
9.91207425149e-163
9.9120742515e-163
9.91207425155e-163
9.91207425349e-163
9.91207436464e-163
9.91208075524e-163
9.91243396009e-163
9.9323087439e-163
1.02456000335e-162
2.38607922473e-39
1.143213192e-09
5.86086018767e-07
1.19907683713e-05
2.02673779283e-05
2.43003000825e-05
2.59764511893e-05
2.65963774814e-05
2.67927851498e-05
2.68479998345e-05
2.68671752081e-05
2.68792770584e-05
2.68900327773e-05
2.6900617029e-05
2.69142925811e-05
2.69253045889e-05
2.69367312603e-05
2.69485878853e-05
2.69609162477e-05
2.69737699219e-05
2.6987200451e-05
2.70012586642e-05
2.70159882358e-05
2.70314229879e-05
2.70475830199e-05
2.70645005476e-05
2.70821699292e-05
2.71005437455e-05
2.71195851023e-05
2.71391925275e-05
2.71592789566e-05
2.71797974126e-05
2.72006199482e-05
2.7221662446e-05
2.72427122783e-05
2.72635795192e-05
2.72840498585e-05
2.7303864749e-05
2.7322920594e-05
2.73410195811e-05
2.73579644019e-05
2.73735986104e-05
2.73876984441e-05
2.74001068609e-05
2.74106902029e-05
2.74193366761e-05
2.74259635077e-05
2.74305257202e-05
2.74385339014e-05
9.9120742477e-163
9.9120742477e-163
9.91207424771e-163
9.91207424772e-163
9.91207424773e-163
9.91207424773e-163
9.91207424774e-163
9.91207424775e-163
9.91207424775e-163
9.91207424776e-163
9.91207424777e-163
9.91207424777e-163
9.91207424778e-163
9.91207424779e-163
9.9120742479e-163
9.91207425406e-163
9.9120746055e-163
9.9120946432e-163
9.91319107082e-163
9.97331846714e-163
1.06938453749e-162
3.81550472029e-16
5.73505628456e-09
4.11384564018e-06
1.51982769377e-05
2.18812986228e-05
2.49505484252e-05
2.61769305353e-05
2.66107656238e-05
2.67412541211e-05
2.67838564074e-05
2.68029905526e-05
2.68177500455e-05
2.68315142501e-05
2.68450286601e-05
2.68584980549e-05
2.68749656861e-05
2.68887133198e-05
2.69027972957e-05
2.69172208419e-05
2.69319868307e-05
2.69472287407e-05
2.6963012305e-05
2.69793944971e-05
2.69964126919e-05
2.70140913733e-05
2.70324394968e-05
2.70514458001e-05
2.70711142619e-05
2.70913854951e-05
2.71121733789e-05
2.71333914464e-05
2.71548645165e-05
2.71765498636e-05
2.71983027509e-05
2.72199730062e-05
2.72413795277e-05
2.726230551e-05
2.72825715171e-05
2.73019229078e-05
2.732022231e-05
2.73372929444e-05
2.73529445173e-05
2.7367024659e-05
2.73794011648e-05
2.73899331385e-05
2.73985264486e-05
2.74051105064e-05
2.74096437221e-05
2.74172042076e-05
9.91207424499e-163
9.912074245e-163
9.912074245e-163
9.91207424501e-163
9.91207424501e-163
9.91207424502e-163
9.91207424503e-163
9.91207424503e-163
9.91207424504e-163
9.91207424504e-163
9.91207424505e-163
9.91207424505e-163
9.91207424506e-163
9.91207424507e-163
9.91207424546e-163
9.91207426754e-163
9.91207553897e-163
9.91214671165e-163
9.91614173763e-163
1.00261573327e-162
4.23481717446e-63
5.77821425943e-13
1.47836760065e-08
7.56237708596e-06
1.7523276118e-05
2.29375969949e-05
2.53044948976e-05
2.62267132952e-05
2.65402479426e-05
2.66353881139e-05
2.66738998927e-05
2.66963614987e-05
2.67158446166e-05
2.67344124565e-05
2.67525470147e-05
2.67704241402e-05
2.67880626955e-05
2.68056704865e-05
2.68232971523e-05
2.68439841744e-05
2.68620578057e-05
2.68805302195e-05
2.68994211213e-05
2.69187681818e-05
2.69385314874e-05
2.69588283318e-05
2.69796675976e-05
2.70010421346e-05
2.70229124614e-05
2.70452204979e-05
2.70678974777e-05
2.70909640135e-05
2.71142536298e-05
2.71376429062e-05
2.71609303059e-05
2.71810612404e-05
2.72036477496e-05
2.72255798536e-05
2.72467739941e-05
2.72670256549e-05
2.72861271109e-05
2.7303827729e-05
2.73199572514e-05
2.7334400154e-05
2.73470454436e-05
2.73577904606e-05
2.73665615504e-05
2.73732943782e-05
2.73779421481e-05
2.73852603005e-05
9.91207424293e-163
9.91207424293e-163
9.91207424294e-163
9.91207424294e-163
9.91207424295e-163
9.91207424295e-163
9.91207424296e-163
9.91207424296e-163
9.91207424297e-163
9.91207424297e-163
9.91207424298e-163
9.91207424298e-163
9.91207424299e-163
9.91207424301e-163
9.91207424421e-163
9.91207431351e-163
9.91207832671e-163
9.91230199051e-163
9.9249632778e-163
1.01492155729e-162
1.44748747867e-40
1.38981035174e-10
7.9075133856e-08
1.05263976141e-05
1.92356101701e-05
2.3621318566e-05
2.54780521421e-05
2.61809001845e-05
2.64136637487e-05
2.64912294765e-05
2.65301145793e-05
2.65573260086e-05
2.65823798863e-05
2.66065081696e-05
2.66300389464e-05
2.6653048169e-05
2.66757454988e-05
2.66982220008e-05
2.67206237495e-05
2.67430062841e-05
2.67654750852e-05
2.67880221515e-05
2.68107816115e-05
2.68338509722e-05
2.68572992728e-05
2.68811606381e-05
2.69054146349e-05
2.69300153312e-05
2.69548897954e-05
2.69800613026e-05
2.7005454134e-05
2.70309807372e-05
2.70565548389e-05
2.70820839039e-05
2.71074420351e-05
2.71323947676e-05
2.71567279353e-05
2.71802275765e-05
2.72027916735e-05
2.72242441673e-05
2.72444276629e-05
2.72631288437e-05
2.7280177269e-05
2.72954287176e-05
2.73087369288e-05
2.73199991193e-05
2.7329160292e-05
2.73361588931e-05
2.73409676592e-05
2.73481237642e-05
9.91207424131e-163
9.91207424132e-163
9.91207424132e-163
9.91207424132e-163
9.91207424133e-163
9.91207424133e-163
9.91207424134e-163
9.91207424134e-163
9.91207424134e-163
9.91207424135e-163
9.91207424135e-163
9.91207424136e-163
9.91207424136e-163
9.91207424142e-163
9.9120742448e-163
9.91207443814e-163
9.91208550041e-163
9.91269327944e-163
9.94647678094e-163
1.0404803388e-162
3.60500903483e-22
2.75088896294e-09
1.77219499273e-06
1.30471632564e-05
2.04996134379e-05
2.40564023192e-05
2.5527647991e-05
2.6071065536e-05
2.62525126518e-05
2.63178463011e-05
2.63598108559e-05
2.63926118461e-05
2.64235294669e-05
2.6453480849e-05
2.64827424008e-05
2.65114129312e-05
2.65396372347e-05
2.65675660459e-05
2.65952850014e-05
2.66228414498e-05
2.66502208827e-05
2.66775950045e-05
2.67050613772e-05
2.67327190413e-05
2.67605669265e-05
2.67885489292e-05
2.68166224088e-05
2.68449064034e-05
2.6873459015e-05
2.69021860804e-05
2.69309635083e-05
2.69595582849e-05
2.69880097883e-05
2.70161972312e-05
2.70439665546e-05
2.70712372349e-05
2.70978477212e-05
2.71204948006e-05
2.71449069859e-05
2.71680043941e-05
2.71896085662e-05
2.7209584226e-05
2.72277580888e-05
2.72439907604e-05
2.72581625406e-05
2.72701650239e-05
2.72799119189e-05
2.72873398928e-05
2.72924258315e-05
2.72995514401e-05
9.91207424002e-163
9.91207424002e-163
9.91207424002e-163
9.91207424003e-163
9.91207424003e-163
9.91207424003e-163
9.91207424004e-163
9.91207424004e-163
9.91207424004e-163
9.91207424005e-163
9.91207424005e-163
9.91207424005e-163
9.91207424006e-163
9.91207424019e-163
9.91207424764e-163
9.91207466912e-163
9.912098488e-163
9.91339195888e-163
9.98319368301e-163
1.08062697453e-162
3.64799159606e-15
6.62098169018e-09
4.44528526362e-06
1.51250745547e-05
2.14389813496e-05
2.43173171929e-05
2.54802426541e-05
2.59073785821e-05
2.60530848364e-05
2.61158454271e-05
2.61630869325e-05
2.62027139057e-05
2.62406762247e-05
2.62774529941e-05
2.63132747005e-05
2.63483929981e-05
2.63829136949e-05
2.64168572267e-05
2.64502899139e-05
2.6483381436e-05
2.65161859272e-05
2.65488257106e-05
2.65814733375e-05
2.66141235063e-05
2.66468095565e-05
2.66765361762e-05
2.67092279415e-05
2.67419613046e-05
2.6774715815e-05
2.68072727664e-05
2.68396142353e-05
2.68717197147e-05
2.69034658685e-05
2.69347717517e-05
2.6965584961e-05
2.69956455562e-05
2.70246684551e-05
2.70523870613e-05
2.70788036371e-05
2.71038417297e-05
2.7127335357e-05
2.71489654111e-05
2.71684942818e-05
2.71857752251e-05
2.72008685581e-05
2.72137456276e-05
2.72242399891e-05
2.72322033005e-05
2.72375897101e-05
2.72446435421e-05
9.91207423895e-163
9.91207423896e-163
9.91207423896e-163
9.91207423896e-163
9.91207423897e-163
9.91207423897e-163
9.91207423897e-163
9.91207423898e-163
9.91207423898e-163
9.91207423898e-163
9.91207423899e-163
9.91207423899e-163
9.912074239e-163
9.91207423941e-163
9.91207426289e-163
9.91207560625e-163
9.91215035613e-163
9.9163162111e-163
1.00299210628e-162
4.34647806066e-63
5.87003964364e-13
1.43225521447e-08
7.16990153925e-06
1.68408093177e-05
2.21108159495e-05
2.44399386675e-05
2.53658313353e-05
2.57017286903e-05
2.58241389316e-05
2.58889679681e-05
2.59402491671e-05
2.59878146772e-05
2.60336117485e-05
2.60778279507e-05
2.61209072947e-05
2.61629854534e-05
2.62042429827e-05
2.62448222921e-05
2.62846698512e-05
2.63239199322e-05
2.63627886268e-05
2.64013415812e-05
2.64395121614e-05
2.64774365209e-05
2.65151784737e-05
2.6552763529e-05
2.65902532931e-05
2.66276171851e-05
2.66647128951e-05
2.67015069687e-05
2.67380230966e-05
2.6774155391e-05
2.68096782979e-05
2.68445188659e-05
2.6875676013e-05
2.69086398146e-05
2.69403697774e-05
2.69707182686e-05
2.69995249013e-05
2.70266621672e-05
2.70520307695e-05
2.70753799906e-05
2.70965047857e-05
2.71152390368e-05
2.71314912672e-05
2.71452527875e-05
2.71564396084e-05
2.71649695488e-05
2.71707997526e-05
2.71780084319e-05
9.91207423808e-163
9.91207423808e-163
9.91207423808e-163
9.91207423808e-163
9.91207423809e-163
9.91207423809e-163
9.91207423809e-163
9.91207423809e-163
9.9120742381e-163
9.9120742381e-163
9.9120742381e-163
9.91207423811e-163
9.91207423813e-163
9.91207423927e-163
9.9120743046e-163
9.91207804397e-163
9.91228456416e-163
9.92385313708e-163
1.01345948533e-162
1.39384781304e-62
5.55295912582e-11
5.30063083997e-08
9.73889256553e-06
1.82584538513e-05
2.26006746854e-05
2.44592718811e-05
2.51927501493e-05
2.54613468762e-05
2.55721332884e-05
2.56411509221e-05
2.57003601855e-05
2.57562004782e-05
2.58100558714e-05
2.58625053132e-05
2.59134290267e-05
2.59630118643e-05
2.60116660683e-05
2.60592395542e-05
2.61058176269e-05
2.61516433505e-05
2.61968193319e-05
2.62415659428e-05
2.62857656925e-05
2.63294101492e-05
2.63728166519e-05
2.64127422384e-05
2.64554735932e-05
2.64978202153e-05
2.65396165993e-05
2.65809383689e-05
2.66218670167e-05
2.66621279124e-05
2.67014290559e-05
2.67398487631e-05
2.6777270528e-05
2.68134971432e-05
2.6848391364e-05
2.68816922314e-05
2.69132177231e-05
2.6939617733e-05
2.69671564395e-05
2.69923743164e-05
2.70151868463e-05
2.70354483112e-05
2.70530104767e-05
2.70677867784e-05
2.70797674543e-05
2.70889204954e-05
2.70952252351e-05
2.71026159376e-05
9.91207423734e-163
9.91207423734e-163
9.91207423734e-163
9.91207423734e-163
9.91207423735e-163
9.91207423735e-163
9.91207423735e-163
9.91207423735e-163
9.91207423736e-163
9.91207423736e-163
9.91207423736e-163
9.91207423737e-163
9.91207423743e-163
9.91207424079e-163
9.91207443152e-163
9.91208523459e-163
9.91267361138e-163
9.94502393889e-163
1.03912818062e-162
2.11503403537e-29
2.39878785751e-09
1.24638307184e-06
1.21141495607e-05
1.93995311163e-05
2.29204773809e-05
2.44069254803e-05
2.49816024382e-05
2.51959929222e-05
2.53005329803e-05
2.53751425085e-05
2.54427171759e-05
2.55075084805e-05
2.55699928435e-05
2.56307733055e-05
2.56898444616e-05
2.5747316672e-05
2.58033860061e-05
2.58584576383e-05
2.59094953513e-05
2.5962333195e-05
2.60142333e-05
2.60653793257e-05
2.611592795e-05
2.61657025889e-05
2.62148679346e-05
2.62635981644e-05
2.63116505464e-05
2.6359056164e-05
2.64057421348e-05
2.64518863807e-05
2.64943323517e-05
2.6538940723e-05
2.65825376165e-05
2.66249188661e-05
2.66659770848e-05
2.67055400916e-05
2.67434762329e-05
2.67796970535e-05
2.68139516714e-05
2.68459884012e-05
2.6875659591e-05
2.69028596166e-05
2.69275104882e-05
2.69461976458e-05
2.69651937279e-05
2.69811241562e-05
2.69940226648e-05
2.7003872076e-05
2.7010668608e-05
2.70182328032e-05
9.91207423671e-163
9.91207423671e-163
9.91207423671e-163
9.91207423672e-163
9.91207423672e-163
9.91207423672e-163
9.91207423672e-163
9.91207423672e-163
9.91207423673e-163
9.91207423673e-163
9.91207423673e-163
9.91207423674e-163
9.91207423688e-163
9.91207424495e-163
9.91207469608e-163
9.91209986367e-163
9.91345063726e-163
9.98523225731e-163
1.08270169399e-162
3.2895939006e-15
6.30487608801e-09
3.93490693877e-06
1.41832501308e-05
2.02826892865e-05
2.31025878565e-05
2.42677170007e-05
2.47237754971e-05
2.49034375417e-05
2.50080661226e-05
2.50908673314e-05
2.51679525642e-05
2.52420103336e-05
2.5313825686e-05
2.53804826815e-05
2.54482660964e-05
2.55143902804e-05
2.557869457e-05
2.56414410146e-05
2.57029210093e-05
2.57631682906e-05
2.58220971128e-05
2.58801492377e-05
2.59372212707e-05
2.59903648777e-05
2.60456657398e-05
2.61001224954e-05
2.6153808663e-05
2.62067886978e-05
2.62587380443e-05
2.63097338753e-05
2.63597319755e-05
2.64087455627e-05
2.64567076587e-05
2.64999446494e-05
2.65448942361e-05
2.65881365227e-05
2.66294356148e-05
2.66686113953e-05
2.67055920286e-05
2.67401631327e-05
2.67721570579e-05
2.68014822784e-05
2.68279349303e-05
2.68513991969e-05
2.68717253366e-05
2.68889337672e-05
2.68996479289e-05
2.69102298283e-05
2.69174073057e-05
2.69249373505e-05
9.91207423617e-163
9.91207423617e-163
9.91207423617e-163
9.91207423618e-163
9.91207423618e-163
9.91207423618e-163
9.91207423618e-163
9.91207423618e-163
9.91207423619e-163
9.91207423619e-163
9.91207423619e-163
9.9120742362e-163
9.91207423671e-163
9.91207426544e-163
9.91207588593e-163
9.91216475311e-163
9.91704873066e-163
1.00418849484e-162
5.07959881758e-63
8.08169979796e-13
1.46765431317e-08
6.7930733804e-06
1.59597621388e-05
2.09322552148e-05
2.31537682807e-05
2.40699857541e-05
2.44282398501e-05
2.45916249583e-05
2.46975066947e-05
2.47901320926e-05
2.48746816299e-05
2.49589980223e-05
2.50404422711e-05
2.51196338554e-05
2.51964305014e-05
2.52711786902e-05
2.53439519222e-05
2.54149284635e-05
2.54812877528e-05
2.5549137855e-05
2.56157464281e-05
2.56808285692e-05
2.57448528578e-05
2.58076153519e-05
2.58691508641e-05
2.59296692231e-05
2.59862410294e-05
2.60446889248e-05
2.61020299053e-05
2.6158345658e-05
2.62131777237e-05
2.62666829723e-05
2.63187514243e-05
2.63694699858e-05
2.64150930255e-05
2.64618507794e-05
2.65064337939e-05
2.65487811333e-05
2.65887947972e-05
2.66261512895e-05
2.66605231322e-05
2.66918726185e-05
2.67201445592e-05
2.6745218855e-05
2.67669577185e-05
2.67852152323e-05
2.67999628009e-05
2.68112797142e-05
2.681571412e-05
2.68267207308e-05
9.9120742357e-163
9.9120742357e-163
9.91207423571e-163
9.91207423571e-163
9.91207423571e-163
9.91207423571e-163
9.91207423571e-163
9.91207423572e-163
9.91207423572e-163
9.91207423572e-163
9.91207423572e-163
9.91207423575e-163
9.9120742375e-163
9.91207433582e-163
9.91207986227e-163
9.91237919693e-163
9.92874905925e-163
1.02019119708e-162
9.1820167714e-40
3.34461108704e-10
7.67800455688e-08
9.58630239819e-06
1.74130087986e-05
2.13818256854e-05
2.31092601799e-05
2.3819976398e-05
2.41082010255e-05
2.42565116496e-05
2.43696393544e-05
2.44726307205e-05
2.45710365886e-05
2.46657311527e-05
2.47576442985e-05
2.48465246754e-05
2.49299753199e-05
2.50137178492e-05
2.50952134166e-05
2.51748115746e-05
2.52521828189e-05
2.53277908337e-05
2.53986261392e-05
2.54713753183e-05
2.55423508106e-05
2.56117860025e-05
2.56800760041e-05
2.57470511103e-05
2.58126692122e-05
2.58737167571e-05
2.59368093241e-05
2.5998127086e-05
2.60579088789e-05
2.61161593573e-05
2.61729099338e-05
2.62275713854e-05
2.62802419963e-05
2.63275407473e-05
2.63756680535e-05
2.64211504577e-05
2.6463991681e-05
2.6503918513e-05
2.65406964159e-05
2.65743251172e-05
2.66045866925e-05
2.66313135537e-05
2.66544009432e-05
2.66738116484e-05
2.6689558489e-05
2.67016702158e-05
2.67066312832e-05
2.6717720023e-05
9.91207423529e-163
9.9120742353e-163
9.9120742353e-163
9.9120742353e-163
9.9120742353e-163
9.9120742353e-163
9.9120742353e-163
9.91207423531e-163
9.91207423531e-163
9.91207423531e-163
9.91207423531e-163
9.91207423542e-163
9.91207424108e-163
9.91207455598e-163
9.9120920407e-163
9.91302647115e-163
9.96285669092e-163
1.05839483627e-162
2.39764235554e-18
3.74690629182e-09
1.97328487295e-06
1.20978340852e-05
1.85640099512e-05
2.16552575686e-05
2.29828699146e-05
2.35265585619e-05
2.37657020441e-05
2.39109535118e-05
2.40326811711e-05
2.41469444165e-05
2.42564975864e-05
2.4359345705e-05
2.44615129974e-05
2.45605648301e-05
2.46563196356e-05
2.47495391672e-05
2.48370089741e-05
2.49251357905e-05
2.50108059079e-05
2.50946207734e-05
2.51762441432e-05
2.52563704825e-05
2.5331175159e-05
2.54075437528e-05
2.54825483667e-05
2.55557739255e-05
2.56273400821e-05
2.56976093165e-05
2.57629917898e-05
2.58297886333e-05
2.58947708296e-05
2.59578433498e-05
2.60190843101e-05
2.60781246142e-05
2.61347948546e-05
2.61856552074e-05
2.62372816836e-05
2.62859393829e-05
2.63316171437e-05
2.63741792273e-05
2.64135264926e-05
2.64494016955e-05
2.6481556363e-05
2.65099711677e-05
2.65345309421e-05
2.65552629114e-05
2.65721482583e-05
2.65814129009e-05
2.6590209886e-05
2.6598171865e-05
9.91207423493e-163
9.91207423494e-163
9.91207423494e-163
9.91207423494e-163
9.91207423494e-163
9.91207423494e-163
9.91207423495e-163
9.91207423495e-163
9.91207423495e-163
9.91207423495e-163
9.91207423496e-163
9.91207423533e-163
9.9120742562e-163
9.91207541944e-163
9.91213884115e-163
9.91556787901e-163
1.00224448158e-162
2.85182070528e-63
1.80223654942e-13
1.00836095474e-08
5.16339216777e-06
1.42450253223e-05
1.94016471335e-05
2.17659979596e-05
2.27720482851e-05
2.3195158123e-05
2.34039959641e-05
2.35525773595e-05
2.36850462993e-05
2.38079880262e-05
2.39292842011e-05
2.40459663765e-05
2.41591417088e-05
2.42654067633e-05
2.43714518419e-05
2.44742900645e-05
2.45738903301e-05
2.46708484607e-05
2.47620441581e-05
2.48538048207e-05
2.49431914281e-05
2.50307049556e-05
2.51160651402e-05
2.51961233024e-05
2.5277875232e-05
2.53574174107e-05
2.54351016809e-05
2.55113260469e-05
2.55818516183e-05
2.56541891299e-05
2.57242607226e-05
2.57921314998e-05
2.58578251783e-05
2.59212827055e-05
2.59820787188e-05
2.60365947303e-05
2.60917255185e-05
2.61436794653e-05
2.61924354156e-05
2.62378012582e-05
2.62794149501e-05
2.63173297886e-05
2.63513989852e-05
2.63815818328e-05
2.64041861807e-05
2.64261957254e-05
2.64439442198e-05
2.64574779821e-05
2.64668020297e-05
2.64748921904e-05
9.91207423462e-163
9.91207423462e-163
9.91207423462e-163
9.91207423462e-163
9.91207423462e-163
9.91207423462e-163
9.91207423463e-163
9.91207423463e-163
9.91207423463e-163
9.91207423463e-163
9.91207423466e-163
9.91207423617e-163
9.91207432035e-163
9.91207899921e-163
9.91233051939e-163
9.92597070967e-163
1.01648245753e-162
4.47154672079e-41
6.72996634068e-11
3.97196113806e-08
8.33785231105e-06
1.60065350419e-05
1.9966061095e-05
2.17395612901e-05
2.24944331435e-05
2.28315211795e-05
2.30280927137e-05
2.31846191134e-05
2.33262891082e-05
2.34645757402e-05
2.35973299704e-05
2.37227482525e-05
2.38464855535e-05
2.39664378049e-05
2.40822386296e-05
2.41915832065e-05
2.43008067356e-05
2.44065920168e-05
2.45097191351e-05
2.46066089901e-05
2.47041976109e-05
2.47992336383e-05
2.48917424925e-05
2.4978724316e-05
2.50671486591e-05
2.51530993175e-05
2.52368710499e-05
2.53186745253e-05
2.53950136333e-05
2.54724880028e-05
2.55474891986e-05
2.56203501727e-05
2.5690437407e-05
2.57579538843e-05
2.5819122512e-05
2.58809179394e-05
2.59396070646e-05
2.59947363617e-05
2.60463617292e-05
2.60943431381e-05
2.61384691698e-05
2.61787008489e-05
2.62112618446e-05
2.62431826055e-05
2.62707201064e-05
2.62938681938e-05
2.63126021298e-05
2.63269013397e-05
2.63367755291e-05
2.63450094476e-05
9.91207423433e-163
9.91207423433e-163
9.91207423434e-163
9.91207423434e-163
9.91207423434e-163
9.91207423434e-163
9.91207423434e-163
9.91207423434e-163
9.91207423435e-163
9.91207423435e-163
9.91207423447e-163
9.91207424091e-163
9.91207459368e-163
9.91209386705e-163
9.91310862044e-163
9.96616286702e-163
1.06202940244e-162
3.3466697776e-18
3.66654184627e-09
1.62014482695e-06
1.11794543432e-05
1.73344317315e-05
2.03018145041e-05
2.16070529037e-05
2.21749962172e-05
2.2451834167e-05
2.26418550765e-05
2.28081914684e-05
2.29651764845e-05
2.31128785305e-05
2.32577665557e-05
2.33971403202e-05
2.35288959307e-05
2.3659180591e-05
2.37852431899e-05
2.39040273556e-05
2.40224822788e-05
2.41371469474e-05
2.42488057186e-05
2.43537861933e-05
2.44592650143e-05
2.45620854546e-05
2.46620659704e-05
2.47562311714e-05
2.48511845314e-05
2.49435334866e-05
2.50336065203e-05
2.51211784083e-05
2.52028407331e-05
2.5285676654e-05
2.53656432645e-05
2.54429430854e-05
2.55175529057e-05
2.55856869399e-05
2.56542590647e-05
2.57194491451e-05
2.5781462251e-05
2.58398257843e-05
2.58942920425e-05
2.5944890089e-05
2.59875674567e-05
2.60299177336e-05
2.60678492722e-05
2.61013432503e-05
2.61303011876e-05
2.61547085842e-05
2.61744670913e-05
2.6189565923e-05
2.62000216892e-05
2.62084421409e-05
9.91207423408e-163
9.91207423408e-163
9.91207423408e-163
9.91207423408e-163
9.91207423408e-163
9.91207423409e-163
9.91207423409e-163
9.91207423409e-163
9.91207423409e-163
9.9120742341e-163
9.91207423467e-163
9.91207426601e-163
9.91207598077e-163
9.91216746724e-163
9.91703164383e-163
1.00450470216e-162
4.4660277456e-63
4.81186289131e-13
1.15812161024e-08
5.1492199538e-06
1.35686583378e-05
1.82446626919e-05
2.04187908491e-05
2.1375163018e-05
2.1809982849e-05
2.20585386517e-05
2.22526871676e-05
2.24305461208e-05
2.25972218918e-05
2.27601766246e-05
2.29141558627e-05
2.30653702393e-05
2.32113577736e-05
2.33489730192e-05
2.34850471842e-05
2.36165010266e-05
2.37408548457e-05
2.38643272944e-05
2.39843885054e-05
2.40975401772e-05
2.4210750573e-05
2.43207477365e-05
2.44281461237e-05
2.4528887485e-05
2.46306865746e-05
2.47294502503e-05
2.48256257693e-05
2.49154516967e-05
2.50063052906e-05
2.50942174892e-05
2.51790990904e-05
2.52610803887e-05
2.53364079071e-05
2.54120624647e-05
2.54842604978e-05
2.5553013983e-05
2.56181353716e-05
2.56794954035e-05
2.57329261468e-05
2.57861173033e-05
2.58350428882e-05
2.58793640388e-05
2.59190966893e-05
2.59541594897e-05
2.59844498644e-05
2.60099128019e-05
2.60305383485e-05
2.60463331346e-05
2.6057322565e-05
2.60658868635e-05
9.91207423385e-163
9.91207423385e-163
9.91207423385e-163
9.91207423385e-163
9.91207423386e-163
9.91207423386e-163
9.91207423386e-163
9.91207423386e-163
9.91207423386e-163
9.91207423392e-163
9.91207423689e-163
9.91207439816e-163
9.91208313888e-163
9.91254141169e-163
9.93664700296e-163
1.03032390338e-162
2.50356703791e-39
8.70807903371e-10
9.73882093997e-08
8.61202808109e-06
1.53811015052e-05
1.88154103541e-05
2.03726812226e-05
2.10728524335e-05
2.14242424153e-05
2.16584182169e-05
2.18584280463e-05
2.20490738251e-05
2.22285062813e-05
2.24037997462e-05
2.25722242165e-05
2.27318869104e-05
2.28884662066e-05
2.30364500583e-05
2.31827557465e-05
2.33239389972e-05
2.34575331646e-05
2.35897226213e-05
2.37178530874e-05
2.38388903044e-05
2.39599749081e-05
2.40773647805e-05
2.41878397023e-05
2.42991821051e-05
2.44070333803e-05
2.45120009679e-05
2.46103580787e-05
2.47093356606e-05
2.48052563172e-05
2.48983644537e-05
2.49882060042e-05
2.50709596488e-05
2.51542600975e-05
2.52338854078e-05
2.5309768986e-05
2.53821806321e-05
2.54464005814e-05
2.55106789069e-05
2.55706013665e-05
2.56261711032e-05
2.56770620489e-05
2.57232891435e-05
2.57647857447e-05
2.58014883287e-05
2.58290206165e-05
2.58556586091e-05
2.58771874729e-05
2.58937353854e-05
2.59053089781e-05
2.59140579236e-05
9.91207423364e-163
9.91207423364e-163
9.91207423364e-163
9.91207423365e-163
9.91207423365e-163
9.91207423365e-163
9.91207423365e-163
9.91207423365e-163
9.91207423366e-163
9.91207423393e-163
9.91207424883e-163
9.91207506139e-163
9.9121188555e-163
9.91442336105e-163
1.00078519151e-162
1.01183962485e-63
1.69983086681e-14
6.65733465292e-09
2.97513497143e-06
1.15436180994e-05
1.66551440065e-05
1.90982490427e-05
2.02046844648e-05
2.07255466131e-05
2.10224944563e-05
2.12564339882e-05
2.14700655353e-05
2.16701022751e-05
2.18649974195e-05
2.20489038482e-05
2.22291156198e-05
2.23993370607e-05
2.25665639919e-05
2.27244056175e-05
2.28802873264e-05
2.30306194239e-05
2.31727464485e-05
2.33139558113e-05
2.34504454017e-05
2.35795175178e-05
2.37078881194e-05
2.38324384153e-05
2.39498566618e-05
2.40674537407e-05
2.41815642389e-05
2.42887552191e-05
2.43964285222e-05
2.45006853186e-05
2.46017020742e-05
2.46955027277e-05
2.47899161519e-05
2.48806774224e-05
2.49679534281e-05
2.5051625725e-05
2.5127078678e-05
2.52026905017e-05
2.52740768839e-05
2.53411064341e-05
2.54035802582e-05
2.54614632584e-05
2.55103911589e-05
2.5558558823e-05
2.560169302e-05
2.56397263089e-05
2.56726019616e-05
2.57002594262e-05
2.57226804832e-05
2.57399173632e-05
2.57520069927e-05
2.5760871845e-05
9.91207423345e-163
9.91207423345e-163
9.91207423346e-163
9.91207423346e-163
9.91207423346e-163
9.91207423346e-163
9.91207423346e-163
9.91207423346e-163
9.9120742335e-163
9.91207423541e-163
9.91207433815e-163
9.91207985903e-163
9.91236747165e-163
9.92740581451e-163
1.0184960074e-162
8.70515160614e-41
4.73375471374e-11
2.89750151039e-08
6.83673879789e-06
1.37868870751e-05
1.74402051061e-05
1.91444681512e-05
1.99309735817e-05
2.03399445658e-05
2.06176147929e-05
2.08587849947e-05
2.1082114454e-05
2.12953480221e-05
2.1502508906e-05
2.16981599521e-05
2.18892548678e-05
2.20699966298e-05
2.22474331818e-05
2.2414768159e-05
2.25799148163e-05
2.27357586554e-05
2.28897043021e-05
2.3038667446e-05
2.31795600946e-05
2.33194198818e-05
2.34550886698e-05
2.35830235344e-05
2.37108006095e-05
2.38350111986e-05
2.39512809543e-05
2.40678161569e-05
2.41807440697e-05
2.42900994638e-05
2.43921215295e-05
2.44944179523e-05
2.45930423425e-05
2.46878393261e-05
2.4774691528e-05
2.48618936051e-05
2.49449180615e-05
2.50234802138e-05
2.50976898626e-05
2.51628718259e-05
2.52278828674e-05
2.52878539431e-05
2.53428571646e-05
2.53927669491e-05
2.54374880744e-05
2.54769550236e-05
2.55111502425e-05