/*--------------------------------*- C++ -*----------------------------------*\
| =========                 |                                                 |
| \\      /  F ield         | foam-extend: Open Source CFD                    |
|  \\    /   O peration     | Version:     4.1                                |
|   \\  /    A nd           | Web:         http://www.foam-extend.org         |
|    \\/     M anipulation  |                                                 |
\*---------------------------------------------------------------------------*/
FoamFile
{
    version     2.0;
    format      ascii;
    class       volScalarField;
    location    "0.0009";
    object      Mach;
}
// * * * * * * * * * * * * * * * * * * * * * * * * * * * * * * * * * * * * * //

dimensions      [0 0 0 0 0 0 0];

internalField   nonuniform List<scalar> 
8400
(
56.1971337634
56.1971337635
56.1971337635
56.1971337635
56.1971337636
56.1971337636
56.1971337636
56.1971337637
56.1971337637
56.1971337637
56.1971337638
56.1971337638
56.1971337638
56.1971337639
56.1971337639
56.1971337639
56.1971337639
56.197133762
56.1971336496
56.1971273051
56.1967753828
56.1818129037
38.793744554
14.2603008599
6.77867981616
3.15943898934
1.69288205075
0.905942829277
0.505421583556
0.328037132967
0.264138602774
0.243621445936
0.235477168613
0.230189106802
0.225379092754
0.220511714442
0.215493451128
0.210331643317
0.205055775089
0.199696309568
0.194283715695
0.188845787524
0.183408540712
0.177995941978
0.172630245659
0.167332344367
0.162135529582
0.157035828892
0.152036664257
0.14719544188
0.142515115116
0.13801038176
0.133697305527
0.129591417677
0.12570720609
0.122058598051
0.118658482215
0.115516682962
0.112641093015
0.110037171472
0.107707737218
0.105653262465
0.10387104116
0.102355372046
0.101097546494
0.100085325621
0.0993041548659
0.0987378090609
0.0983692554358
0.0982715583572
56.1971337717
56.1971337717
56.1971337718
56.1971337718
56.1971337718
56.1971337718
56.1971337718
56.1971337718
56.1971337718
56.1971337718
56.1971337718
56.1971337718
56.1971337718
56.1971337718
56.1971337718
56.1971337718
56.1971337717
56.1971337624
56.1971332337
56.1971035445
56.1954754668
56.1311594095
22.4162231076
10.3281179595
4.67256299478
2.47323940886
1.31370785422
0.698803125537
0.399992603042
0.278896189724
0.238812582089
0.225365224377
0.218777579342
0.213814130483
0.209288820371
0.204941762931
0.200705205308
0.196588188207
0.192611242404
0.188734659438
0.184975158078
0.181339539691
0.17783294235
0.174460442254
0.17122753527
0.16813969299
0.165201835566
0.162417610377
0.159791527581
0.157327018783
0.155025707386
0.152889267334
0.150918771541
0.149114272152
0.147474330417
0.145996178035
0.14467601516
0.143508122574
0.142485322995
0.141599362692
0.140840842621
0.140199818606
0.139665744086
0.139227850266
0.138875630465
0.138597926273
0.138384022303
0.138223758355
0.138107869208
0.138069333867
56.1971337768
56.1971337768
56.1971337768
56.1971337768
56.1971337768
56.1971337768
56.1971337768
56.1971337768
56.1971337768
56.1971337768
56.1971337768
56.1971337768
56.1971337768
56.1971337768
56.1971337768
56.1971337768
56.1971337759
56.1971337263
56.1971309047
56.1969732229
56.1898162661
48.1124494669
16.95017797
7.92006870385
3.55708470787
1.89452874112
1.00362977931
0.547508972461
0.345024493531
0.273471757193
0.251202587329
0.242553213993
0.237243990903
0.23284067545
0.228824329662
0.225094766098
0.22164208029
0.21840979055
0.215395296256
0.212589622792
0.209983194558
0.207566708697
0.205331603431
0.203269546709
0.201372776095
0.199633766638
0.198045509779
0.196601675336
0.195294976943
0.1941183184
0.19306478648
0.192127563467
0.191299960017
0.190575019853
0.18994587868
0.189405937487
0.188947647692
0.188563472376
0.188245409661
0.187985325621
0.187775068262
0.187606467615
0.187472385266
0.187365547062
0.187278988634
0.187206173267
0.187141064545
0.187078204379
0.187012772976
0.18696947039
56.1971337801
56.1971337801
56.1971337801
56.1971337801
56.1971337801
56.1971337801
56.1971337801
56.1971337801
56.1971337801
56.1971337801
56.1971337801
56.1971337801
56.1971337801
56.1971337801
56.1971337801
56.19713378
56.1971337758
56.1971335333
56.1971197901
56.1963555913
56.1648893999
29.785525763
11.6612467575
5.3998057479
2.81084822138
1.49897061901
0.807369439342
0.475742007254
0.346597159618
0.305882993149
0.292394327643
0.285627596145
0.280546094345
0.276070992172
0.271961758024
0.268166288915
0.264683739677
0.261461346757
0.258490950287
0.255758447291
0.253249086774
0.250948541904
0.248843493222
0.246921710959
0.24517140786
0.243581477291
0.242141283541
0.240840979309
0.239671041588
0.238622127478
0.237685425548
0.236852361233
0.236114539302
0.235463825516
0.234892398559
0.234393867301
0.233961420107
0.23358828881
0.233267610212
0.232992391156
0.232756145506
0.232552773732
0.232376510693
0.232222666379
0.232086292067
0.231962900724
0.231848445259
0.231739363057
0.231632538512
0.231554469997
56.1971337826
56.1971337826
56.1971337826
56.1971337825
56.1971337825
56.1971337825
56.1971337825
56.1971337825
56.1971337825
56.1971337825
56.1971337825
56.1971337825
56.1971337825
56.1971337825
56.1971337825
56.1971337823
56.1971337689
56.1971330069
56.1970902223
56.1947494005
56.103687524
19.8094946686
9.60268263484
4.30722065533
2.29956009665
1.23950579457
0.699702789145
0.464663135974
0.384041542271
0.359054478614
0.348902074942
0.342322231773
0.336743550957
0.331641593056
0.326899605158
0.322474734271
0.31834340506
0.314520378591
0.310956356467
0.307642034816
0.304564470913
0.301708754938
0.299062395691
0.296613451095
0.294350117532
0.292261088763
0.290335471061
0.288562818885
0.286933279445
0.285438366867
0.284069739118
0.282818488316
0.281675948273
0.280634102637
0.279686249322
0.278826799681
0.278048658556
0.277346678135
0.27671443264
0.27614609439
0.275636124517
0.275179857822
0.274773035402
0.274411362992
0.274090933321
0.273808440294
0.273560573967
0.27334447633
0.273157651842
0.273031008948
56.1971337844
56.1971337844
56.1971337844
56.1971337844
56.1971337844
56.1971337843
56.1971337843
56.1971337843
56.1971337843
56.1971337843
56.1971337843
56.1971337843
56.1971337843
56.1971337843
56.1971337843
56.1971337835
56.1971337353
56.1971309935
56.1969774917
56.1899884452
48.3669968847
17.0132821463
7.96577780592
3.59124752308
1.9387001741
1.07131445466
0.654072843847
0.490985347629
0.439132536408
0.421488326729
0.412281954203
0.40517278679
0.39875518479
0.392752238233
0.387098354267
0.381768475459
0.376746107603
0.372013285447
0.367551210455
0.363338842392
0.359399346834
0.355690543253
0.352206236908
0.348936023167
0.345869134777
0.3429946823
0.340302712906
0.33778415284
0.335431373854
0.333237369441
0.331194094727
0.329291840366
0.327523099225
0.325880869318
0.324361880812
0.322973282984
0.321677545104
0.320490843119
0.319404530516
0.318413952069
0.317514782914
0.316703656444
0.315977251482
0.315332142145
0.314764845862
0.314272015679
0.313850710065
0.313498316673
0.313212836109
0.313030456715
56.1971337858
56.1971337858
56.1971337858
56.1971337858
56.1971337858
56.1971337857
56.1971337857
56.1971337857
56.1971337857
56.1971337857
56.1971337857
56.1971337857
56.1971337857
56.1971337857
56.1971337857
56.197133783
56.1971336316
56.1971249912
56.1966410698
56.1763180365
34.4698993487
12.6475295078
6.32887176927
3.06149009143
1.6760447042
0.966835219449
0.649998363791
0.537476750026
0.501930537769
0.487627857878
0.478393291322
0.470502979442
0.463140112876
0.45615216429
0.449499827901
0.443165593951
0.437136259362
0.431399583817
0.425943707294
0.420759397806
0.41583414375
0.411158334228
0.406722002565
0.402515638669
0.398529851822
0.394756406874
0.391187836774
0.387816393734
0.384634981593
0.381636860435
0.378815645778
0.376164725453
0.373677789455
0.371348522618
0.369171985738
0.367144600432
0.365263670163
0.363525648319
0.361924540012
0.360457089605
0.359119063628
0.357908581994
0.356822919213
0.355859284829
0.355014990708
0.354287392935
0.353673967405
0.353172492923
0.352780729855
0.35254080665
56.1971337869
56.1971337869
56.1971337869
56.1971337869
56.1971337869
56.1971337869
56.1971337869
56.1971337869
56.1971337868
56.1971337868
56.1971337868
56.1971337868
56.1971337868
56.1971337868
56.1971337867
56.1971337794
56.1971333612
56.1971098018
56.195810817
56.1442788769
24.4585316307
10.7656509287
4.94406599595
2.64921092824
1.48391744893
0.909922581875
0.673634770587
0.594920048451
0.568435563439
0.555478006983
0.545685767903
0.53685110824
0.528467089436
0.520441381599
0.512747428944
0.505371230047
0.498302472265
0.491530658773
0.485047163861
0.478843673275
0.472911302153
0.467241085391
0.461824501359
0.456653048198
0.451720861975
0.447022354189
0.442549558779
0.438296214795
0.434255192568
0.430422095468
0.42679287679
0.423363419482
0.420128995463
0.417084901824
0.414226928639
0.411550895432
0.409056112543
0.406761124561
0.404620255323
0.402655014521
0.400860403735
0.399233938116
0.397774124478
0.396479262611
0.395347544118
0.394376832669
0.393564509238
0.392908399157
0.392406382585
0.392106989022
56.1971337878
56.1971337878
56.1971337878
56.1971337878
56.1971337878
56.1971337878
56.1971337878
56.1971337878
56.1971337877
56.1971337877
56.1971337877
56.1971337877
56.1971337877
56.1971337877
56.1971337874
56.1971337715
56.1971328698
56.1970826884
56.1943663714
56.0913581658
19.2451357406
9.34626857824
4.23227575139
2.32250849128
1.34566511812
0.88924491368
0.715413633111
0.658547266043
0.637002158697
0.624236825586
0.613579814661
0.603678668633
0.594199582685
0.585083738505
0.576309947729
0.567864038574
0.559735901161
0.55191709023
0.544398908677
0.537173095657
0.53023132599
0.523566578521
0.517170026762
0.51103598046
0.505160778365
0.499560177145
0.494178255841
0.489041004916
0.484141390487
0.479475324497
0.475039991009
0.47083301863
0.466851330961
0.4630912264
0.459548845159
0.456223039469
0.453115571821
0.450225333609
0.447550663693
0.445086338526
0.442830557849
0.440785233636
0.438951691752
0.43732878209
0.435912244801
0.434698283404
0.43368559084
0.432874153055
0.432262236029
0.431905305104
56.1971337885
56.1971337885
56.1971337885
56.1971337885
56.1971337885
56.1971337885
56.1971337885
56.1971337885
56.1971337885
56.1971337885
56.1971337885
56.1971337885
56.1971337885
56.1971337885
56.1971337876
56.197133737
56.1971308764
56.1969717519
56.1898148509
48.1847442259
17.0052467656
8.01842187171
3.67076933643
2.06020677345
1.25090952402
0.895359789071
0.768110006948
0.725368687
0.706447235576
0.693311963695
0.681681277296
0.670652539706
0.660042948679
0.649809228854
0.639932862194
0.630401403974
0.621203743403
0.612330257239
0.603773673603
0.595525771888
0.587577606631
0.57992343593
0.572557794271
0.565474155449
0.55866672287
0.552131959106
0.545865125506
0.539863294034
0.534123228864
0.52864161028
0.523415743835
0.51844524634
0.513730345285
0.509269047108
0.505083108586
0.501120728141
0.497413023632
0.493958111999
0.490755357913
0.487804202785
0.485101406948
0.482649438616
0.480449106679
0.478499842504
0.476799729153
0.475346763445
0.474139435924
0.47317622418
0.47245454975
0.472037927136
56.1971337892
56.1971337891
56.1971337891
56.1971337891
56.1971337891
56.1971337891
56.1971337891
56.1971337891
56.1971337891
56.1971337891
56.1971337891
56.1971337891
56.1971337891
56.1971337891
56.1971337866
56.1971336464
56.1971257294
56.1966864149
56.1784061239
35.8819317445
13.1786761045
6.61893453301
3.20435233011
1.8492829722
1.19125493739
0.920752574138
0.82739416836
0.793726769758
0.776055698747
0.762272325649
0.749587606677
0.737436614576
0.725702209112
0.714350704746
0.703373653444
0.692759599802
0.682494610986
0.672573764448
0.662989092687
0.653730033119
0.644791127727
0.636164107715
0.62784558355
0.619829688166
0.61211068143
0.604715394142
0.597575457861
0.590727493947
0.584166635708
0.577890164667
0.571895377318
0.566184012835
0.560756981341
0.555613012159
0.550750986776
0.546174206727
0.541881479233
0.537876714474
0.534161309793
0.530764017106
0.527625455829
0.524777874406
0.522221494343
0.519956989892
0.517982709048
0.516297888978
0.5149005784
0.513788612705
0.512959149065
0.512485094299
56.1971337897
56.1971337897
56.1971337897
56.1971337897
56.1971337897
56.1971337897
56.1971337896
56.1971337896
56.1971337896
56.1971337896
56.1971337896
56.1971337896
56.1971337896
56.1971337895
56.1971337823
56.1971333769
56.1971107672
56.1958759048
56.1476519336
25.2042744016
10.945019315
5.11240960295
2.81103564885
1.68480028661
1.16227845346
0.960227886141
0.890929858223
0.862985145959
0.845668349697
0.831019220335
0.817225053318
0.803928648045
0.79106262258
0.778599137662
0.766527335516
0.754838763334
0.743520655187
0.732563677562
0.721994915956
0.711735165999
0.701819724101
0.692238489508
0.682984116025
0.674055463384
0.66544528145
0.657148784836
0.649168667172
0.641502371694
0.634145806355
0.627099445747
0.620393882452
0.61396404269
0.607847712181
0.60204580977
0.596558386455
0.591387332599
0.586535866832
0.582004905472
0.57779773217
0.573914896038
0.570359215398
0.567131885526
0.564233027919
0.561695366174
0.559455936673
0.557547742052
0.555967136853
0.554710929417
0.553776782418
0.553247718728
56.1971337901
56.1971337901
56.1971337901
56.1971337901
56.1971337901
56.1971337901
56.1971337901
56.1971337901
56.1971337901
56.1971337901
56.1971337901
56.1971337901
56.1971337901
56.1971337898
56.1971337728
56.1971328275
56.1970808988
56.194306908
56.0915975243
19.295828738
9.44164343463
4.35541726346
2.48409626536
1.56365015816
1.15949247487
1.01062576252
0.957647296986
0.932950259137
0.915321803554
0.899598533158
0.884610307087
0.87012904176
0.856100804118
0.842546035767
0.82936327761
0.816588297004
0.804214670765
0.792227642427
0.7806182342
0.769379715458
0.758507847331
0.747990513014
0.737826127971
0.728044249207
0.718565552417
0.709429748407
0.700632287443
0.692168929197
0.684044139219
0.676256434569
0.668803833089
0.661688096469
0.654911358773
0.64851355682
0.642423612907
0.636682535551
0.631294766668
0.626262016848
0.621585689402
0.61726860245
0.613314084332
0.60972262147
0.606497960134
0.603639861063
0.60114966446
0.599024995202
0.597299408739
0.595904346489
0.594872091097
0.594293922553
56.1971337905
56.1971337905
56.1971337905
56.1971337905
56.1971337905
56.1971337905
56.1971337905
56.1971337905
56.1971337905
56.1971337905
56.1971337905
56.1971337905
56.1971337904
56.1971337894
56.1971337289
56.1971303567
56.1969454583
56.1888945198
47.0009020186
16.7784029566
7.98872353934
3.74854782604
2.21602051534
1.48189011662
1.17760711873
1.06816168963
1.02619601793
1.00310584917
0.984827529569
0.967918162842
0.951730465975
0.936021467267
0.920807159766
0.906057275459
0.891764272816
0.877909604622
0.864483562694
0.851474961299
0.838911568413
0.826699609823
0.814877792539
0.803443802395
0.792383687502
0.781697039105
0.771380814329
0.761429222439
0.751876406688
0.742646927898
0.733780966382
0.725276676384
0.717137590224
0.709363840188
0.701957510452
0.694916876095
0.688292082624
0.682010734994
0.676113244756
0.670600432375
0.665473907227
0.660740909584
0.656406984816
0.652474143311
0.648941722818
0.645809534893
0.643079500251
0.640752986896
0.638827742281
0.637300315203
0.636205157394
0.635538326457
56.1971337908
56.1971337908
56.1971337908
56.1971337908
56.1971337908
56.1971337908
56.1971337908
56.1971337908
56.1971337908
56.1971337908
56.1971337908
56.1971337908
56.1971337907
56.1971337871
56.1971335814
56.1971221986
56.1965040256
56.1719912828
32.7320602011
12.3095395498
6.35895966976
3.24132660556
2.00384349266
1.43465705451
1.21115298231
1.13026045116
1.09547553269
1.07312863296
1.05393004489
1.03580700518
1.01832916873
1.00141207231
0.985012852753
0.969122267038
0.953759162793
0.938824261582
0.924353253156
0.910325509018
0.896734626748
0.883571430051
0.870872557086
0.858533904729
0.846601733508
0.835070080334
0.823930368117
0.813182867142
0.802825003936
0.792898516724
0.783313946571
0.774124484433
0.76532692514
0.756922015035
0.748909698819
0.74129803955
0.734089619198
0.727331721009
0.720944420651
0.714977318681
0.709429909156
0.704309440148
0.699618412223
0.695357614338
0.69152847951
0.688136029257
0.685181886838
0.682663911382
0.680579513448
0.678922393921
0.677731207573
0.677013956663
56.1971337911
56.1971337911
56.1971337911
56.1971337911
56.1971337911
56.1971337911
56.1971337911
56.1971337911
56.1971337911
56.1971337911
56.1971337911
56.1971337911
56.1971337909
56.1971337792
56.197133129
56.197097587
56.1952015011
56.1249257301
21.7793171815
10.3327619825
4.87856712511
2.825072488
1.84555585235
1.41816407785
1.25665140351
1.19561248552
1.16513905264
1.14270326116
1.12243005281
1.10305954417
1.08433985439
1.06625586507
1.04868384968
1.03165060837
1.01514679933
0.999147752976
0.983692213929
0.968665106359
0.954111485429
0.94001061301
0.926360799369
0.913144772987
0.90041615126
0.888061964789
0.876129089484
0.864618733457
0.853524365333
0.842840469557
0.83261835638
0.822766461397
0.813337112187
0.804329199517
0.795742872469
0.787584853045
0.77985973728
0.772614542974
0.765767049442
0.759371597169
0.753426450461
0.747936777709
0.742904378163
0.738334528054
0.734230107753
0.730593284275
0.727424658899
0.724719984307
0.72247720327
0.720742703559
0.719420741769
0.71869573457
56.1971337914
56.1971337914
56.1971337914
56.1971337914
56.1971337914
56.1971337914
56.1971337914
56.1971337914
56.1971337914
56.1971337914
56.1971337914
56.1971337914
56.1971337906
56.1971337476
56.1971313724
56.1970024536
56.191197901
50.6958971927
17.7563916042
8.60641869535
4.09381347725
2.49143192245
1.73871004908
1.42753137503
1.31130618247
1.26322103384
1.23497471799
1.21187901436
1.19037113206
1.16975494175
1.14976019387
1.13040735683
1.11165489476
1.09354640134
1.07594134941
1.05888868046
1.04236976585
1.0263655269
1.01091671729
0.995905939187
0.98137721208
0.967313754719
0.953714155499
0.940622512669
0.927924822241
0.915679498039
0.903877018868
0.892512458378
0.881644883876
0.87116455607
0.861135168945
0.851555731726
0.84242623989
0.833748181734
0.82553290566
0.817831451829
0.810551865985
0.803751013045
0.797427815517
0.791589071263
0.786240890546
0.781384334396
0.777021987433
0.773153391039
0.769826504685
0.766947269774
0.764562331511
0.762667503613
0.761257335438
0.760488782085
56.1971337916
56.1971337916
56.1971337916
56.1971337916
56.1971337916
56.1971337916
56.1971337916
56.1971337916
56.1971337916
56.1971337916
56.1971337916
56.1971337915
56.1971337884
56.1971336161
56.1971241693
56.1966148577
56.1765228755
34.7144629834
13.0669139119
6.86758638091
3.47089431298
2.23466974815
1.67688242134
1.45612659519
1.37173777506
1.33187820039
1.30444422459
1.2803852896
1.25763828961
1.23565076686
1.21439730426
1.19387879122
1.17396217139
1.15467320469
1.13600008056
1.11797217192
1.10044797371
1.08348636839
1.06705632323
1.05121557871
1.03582326708
1.02093965727
1.00655168308
0.992702039949
0.979270121586
0.966321493436
0.953844229086
0.941835069923
0.930347384655
0.919277422997
0.908684282292
0.898562475463
0.888920743992
0.879760486515
0.871138701069
0.862955289754
0.855272267707
0.848092853774
0.841420514518
0.835259607667
0.829615189591
0.824487831497
0.819929902144
0.815844094049
0.812282097418
0.809241752848
0.80672044145
0.804714131549
0.803217331965
0.802407081579
56.1971337918
56.1971337918
56.1971337918
56.1971337918
56.1971337918
56.1971337918
56.1971337918
56.1971337918
56.1971337918
56.1971337918
56.1971337918
56.1971337916
56.1971337786
56.1971330683
56.1970948661
56.1950911567
56.1229848724
21.6409318732
10.3726791352
4.9944727569
2.98498175485
2.0522816001
1.65303357582
1.49885931143
1.43567488558
1.40066439726
1.3732357164
1.34803339758
1.32391323267
1.30069363565
1.27818933351
1.25642647446
1.23542636199
1.21504164538
1.19531131504
1.17627634899
1.15778751832
1.13989807585
1.12257625111
1.1058806054
1.08966808228
1.07398831709
1.05883692776
1.04425861224
1.03013139459
1.01651253495
1.00339235233
0.990771757809
0.978703808339
0.967073081761
0.955948006474
0.945323817173
0.935202865251
0.925645300876
0.916543537142
0.907964774336
0.899906150726
0.892375748163
0.885379990571
0.878918812629
0.873056010288
0.867678683744
0.862848697951
0.858565556973
0.854829060137
0.851635712908
0.848984819264
0.846871881814
0.845290623881
0.844440268138
56.197133792
56.197133792
56.197133792
56.197133792
56.197133792
56.197133792
56.197133792
56.197133792
56.197133792
56.197133792
56.197133792
56.1971337908
56.197133728
56.1971303284
56.1969493916
56.1893179055
47.9624378208
17.156060036
8.3781722132
4.09534979728
2.61367773318
1.93720590664
1.66029219327
1.55202987369
1.50206645461
1.46923969286
1.44110741734
1.41462908293
1.38924546811
1.3646766577
1.34100206493
1.31805473237
1.29586548546
1.27447964268
1.25372673773
1.23365509305
1.21430134958
1.19551494423
1.17733851531
1.15982442502
1.14282774881
1.12640319953
1.1105262081
1.09526441623
1.08047288426
1.06622003592
1.05249507621
1.03935845692
1.02667810193
1.01452888594
1.00290814866
0.991812185962
0.981304702068
0.971272996094
0.961783624157
0.952835402802
0.944433646677
0.936580773802
0.929346394906
0.922611001398
0.91643926494
0.910836884351
0.905802400525
0.901334939264
0.89743659117
0.894104307685
0.891334453085
0.889121743632
0.887459008413
0.88657050569
56.1971337922
56.1971337922
56.1971337922
56.1971337922
56.1971337922
56.1971337922
56.1971337922
56.1971337922
56.1971337922
56.1971337922
56.197133792
56.1971337862
56.1971334669
56.1971164021
56.1962209786
56.163037279
29.4681577534
11.8741867702
6.22240295686
3.42865999637
2.34922891244
1.87721670386
1.68939108424
1.6114045662
1.5691155194
1.53701373941
1.5079121888
1.48010706831
1.45340625099
1.42757684426
1.40264498979
1.37862497367
1.35535366649
1.33293063867
1.31118467148
1.29016932668
1.26991553379
1.2502721826
1.23128399061
1.21299570817
1.19525008504
1.17811048591
1.16162997422
1.14564706203
1.13024401671
1.1154025908
1.10117971277
1.08744270353
1.07426170848
1.06162828521
1.04954504196
1.03807993675
1.0271025709
1.01668837388
1.00683939117
0.997548579165
0.98889915198
0.980754042749
0.973189996469
0.966207707491
0.959814354741
0.954006533334
0.948783978495
0.94414662539
0.940162873082
0.936698845262
0.933817962237
0.931509466752
0.929766344523
0.928840079532
56.1971337923
56.1971337923
56.1971337923
56.1971337923
56.1971337923
56.1971337923
56.1971337923
56.1971337923
56.1971337923
56.1971337923
56.1971337918
56.1971337623
56.1971321646
56.197047013
56.1929769819
54.1268972575
18.7836392196
9.37067760189
4.60989736672
2.93934979841
2.17874428894
1.86095139421
1.73360769001
1.67425207473
1.63603396212
1.60359747072
1.57322661627
1.54419173965
1.5161449834
1.48918509253
1.4630900286
1.43798628872
1.41367161636
1.39026904427
1.36758473229
1.34567764984
1.32457984502
1.30411673724
1.2843512641
1.26532525691
1.24688058259
1.22907433876
1.21196001003
1.1953800436
1.17940267033
1.1640832973
1.14927445398
1.13505018528
1.12140228341
1.1084004356
1.0959014662
1.08397970257
1.07263472125
1.06186728153
1.05176151512
1.04216888958
1.03316893139
1.02476324991
1.01695780478
1.00975295484
1.00322257226
0.997225383953
0.991835882094
0.987050615913
0.982867623306
0.979285068866
0.976297485923
0.973898062231
0.972078320493
0.971119794774
56.1971337925
56.1971337925
56.1971337925
56.1971337925
56.1971337925
56.1971337925
56.1971337925
56.1971337925
56.1971337925
56.1971337924
56.1971337887
56.1971335888
56.1971229949
56.1965705662
56.1759259988
34.6279866474
13.346380122
7.17636069789
3.76168491849
2.59814118556
2.08542818384
1.87658063857
1.78757171357
1.73887991784
1.70204400539
1.66871080085
1.63711517964
1.60676349517
1.57748093918
1.54935385952
1.52216181049
1.49602079207
1.47071787787
1.44639086764
1.42282026469
1.40014892829
1.37818144509
1.35696978474
1.33655804723
1.3167776803
1.29768477861
1.27933372482
1.26155447113
1.24441328449
1.22798346127
1.21209450594
1.19682134015
1.18214903527
1.16815482057
1.15468338299
1.14181465397
1.12953891879
1.1179436888
1.10686877106
1.09639961303
1.08654338177
1.07729339937
1.06873534882
1.06071501472
1.05331532956
1.04653592518
1.04037872958
1.03483908177
1.02991805389
1.02560984708
1.02199120472
1.01890306893
1.01641731989
1.01452183856
1.013530834
56.1971337926
56.1971337926
56.1971337926
56.1971337926
56.1971337926
56.1971337926
56.1971337926
56.1971337926
56.1971337926
56.1971337921
56.1971337693
56.1971325707
56.1970707759
56.1939842718
56.0919639891
19.5021347775
9.87280594688
4.92947811485
3.17039521251
2.38250129887
2.049768978
1.91255789526
1.84665451512
1.80333657438
1.76659362629
1.73213508382
1.69926246965
1.66767508532
1.63721338527
1.60797157626
1.57972597575
1.55261001233
1.52638824576
1.50119019904
1.47680064337
1.45335459769
1.43064782762
1.40881658828
1.38767262078
1.36726957213
1.34766453137
1.32867459651
1.31036871376
1.29281407369
1.27582745187
1.25948843624
1.24386306004
1.22878946977
1.2143447283
1.20052378263
1.18740611574
1.17482316225
1.16286387513
1.1515272684
1.1408104816
1.13080493838
1.12134015581
1.11250709636
1.10430662382
1.09674134036
1.0898063765
1.08359042555
1.07791774275
1.07287730741
1.06846483501
1.06467359528
1.06149968477
1.05893299226
1.05696246849
1.05593847756
56.1971337927
56.1971337927
56.1971337927
56.1971337927
56.1971337927
56.1971337927
56.1971337927
56.1971337927
56.1971337926
56.1971337889
56.197133592
56.1971233601
56.1966003726
56.1775176276
35.9303673109
14.0589269558
7.4208957203
3.93324747924
2.77543855741
2.26646865024
2.05527906659
1.96156926734
1.9080987224
1.86676299216
1.8292721591
1.79358967395
1.75948938118
1.72674871776
1.69518648164
1.66492444491
1.63570965492
1.60768072697
1.58068033467
1.55457233836
1.52952257867
1.50528160359
1.48190669567
1.45945243063
1.43771038419
1.4168357276
1.39661925925
1.37712796252
1.35844596668
1.34036282155
1.32296024414
1.30631649854
1.29023855435
1.27481880799
1.2601417056
1.24601102651
1.23252527021
1.2196756581
1.20755619979
1.19598906155
1.18506621961
1.17478267638
1.16513788304
1.15622906379
1.14787346245
1.14016988023
1.13311431634
1.12669492051
1.12091603996
1.11576886599
1.11134429568
1.10746299247
1.10420920841
1.10156769439
1.09952443196
1.09846875935
56.1971337928
56.1971337928
56.1971337928
56.1971337928
56.1971337928
56.1971337928
56.1971337928
56.1971337928
56.1971337922
56.1971337637
56.1971322672
56.1970548225
56.1933226992
55.0197325271
19.1617639111
9.75325348571
4.9663196147
3.2839995031
2.53792634897
2.22128015702
2.08597026086
2.01701936742
1.96939628058
1.92827448193
1.88972393592
1.85285712315
1.81762378421
1.78380734383
1.75124872364
1.72005326381
1.69005266598
1.66111037144
1.63334440207
1.60652598613
1.58078449617
1.55589029458
1.53200883179
1.50889316566
1.48672179864
1.46525955837
1.4445811023
1.42475960725
1.40556888466
1.38719926838
1.36943897895
1.35237237412
1.33608542509
1.32037325154
1.30533263309
1.2909511972
1.27733101876
1.26426521257
1.25185796001
1.24010189982
1.22910009653
1.21865232086
1.20886456242
1.1997346211
1.19125791262
1.18343681462
1.17637147982
1.16985346895
1.16398019143
1.15874665346
1.15415449003
1.15020612811
1.1468869527
1.14417304996
1.14204693821
1.14094001333
56.1971337929
56.1971337929
56.1971337929
56.1971337929
56.1971337929
56.1971337929
56.1971337929
56.1971337928
56.1971337865
56.1971334624
56.1971169121
56.1962900727
56.1676789344
31.5134819202
12.4004848144
7.10658606024
3.92769241951
2.87700733174
2.41764186397
2.22297053902
2.13114580312
2.07483427749
2.02924585218
1.98746206542
1.94780234239
1.90980820147
1.87351241892
1.83873723603
1.80537457963
1.77325021754
1.74247997629
1.71290616342
1.68437030566
1.6570148529
1.63058094095
1.60524156239
1.58073656982
1.55723559763
1.53449913148
1.51270851716
1.49162622273
1.47133391109
1.45191486523
1.43312986983
1.41507307586
1.39783582703
1.38119471002
1.365249136
1.35009522401
1.33551502635
1.3216118952
1.30838373433
1.29592289202
1.28403368818
1.27280658549
1.26224126604
1.2524475623
1.24321288006
1.23465364185
1.22674910173
1.21950152648
1.2129054125
1.20706605287
1.20176458461
1.19710983849
1.19309039832
1.18969229212
1.18690391063
1.18471209317
1.18359892674
56.197133793
56.197133793
56.197133793
56.197133793
56.197133793
56.197133793
56.197133793
56.1971337916
56.1971337215
56.1971301581
56.1969521532
56.1898984817
49.5627243146
17.8225225842
9.07814246606
4.74387762708
3.28986182577
2.64922910556
2.37532662569
2.25187667519
2.18304459271
2.13202034027
2.08664785348
2.04395581868
2.00327893977
1.96439849986
1.92718727514
1.89143738133
1.85727916154
1.82451948183
1.79309213061
1.76278444115
1.73377990482
1.70578299396
1.67896404531
1.65304335719
1.62822035044
1.60421150159
1.58121536863
1.55896777794
1.53767126441
1.51707349056
1.49725934629
1.4783299045
1.46003802611
1.44248026724
1.42576619852
1.40964361164
1.39422116263
1.37960913969
1.36557766674
1.3522268826
1.33955355047
1.32767912295
1.31636048949
1.30572136797
1.29575679555
1.28645524676
1.2779442988
1.269977642
1.26267774026
1.25603212276
1.25003595418
1.24468855901
1.23997529364
1.23600521712
1.23253636532
1.22967880452
1.22741422282
1.2262753965
56.1971337931
56.1971337931
56.1971337931
56.1971337931
56.1971337931
56.1971337931
56.1971337928
56.1971337766
56.1971329626
56.1970927036
56.1951558262
56.1335247906
23.4773163165
11.1044905084
6.10482235125
3.781396741
2.91939487577
2.54517325248
2.38015076201
2.29481117285
2.2367249122
2.18711839941
2.14117327789
2.09757222858
2.055990512
2.01626898087
1.97829255782
1.9419331813
1.90712241416
1.87363053166
1.84162217757
1.81090805695
1.78131294598
1.75299601258
1.72565903674
1.6994957648
1.67420775365
1.65001275914
1.62660636127
1.60421511716
1.58255490135
1.56185625175
1.54183980458
1.52261060144
1.50426455764
1.486556404
1.46957480198
1.45345034448
1.43792225938
1.42309972086
1.4091123392
1.3956881262
1.38295934618
1.37091895155
1.35967992719
1.3489949259
1.33899612051
1.32967209942
1.32101196763
1.31301436769
1.3058108149
1.29913349223
1.29310706858
1.28772057207
1.28296547913
1.2788321876
1.27531043858
1.27238116538
1.27015975741
1.26898644117
56.1971337932
56.1971337932
56.1971337932
56.1971337932
56.1971337932
56.1971337931
56.1971337883