/*--------------------------------*- C++ -*----------------------------------*\
| =========                 |                                                 |
| \\      /  F ield         | foam-extend: Open Source CFD                    |
|  \\    /   O peration     | Version:     4.1                                |
|   \\  /    A nd           | Web:         http://www.foam-extend.org         |
|    \\/     M anipulation  |                                                 |
\*---------------------------------------------------------------------------*/
FoamFile
{
    version     2.0;
    format      ascii;
    class       volScalarField;
    location    "0.0009";
    object      mu;
}
// * * * * * * * * * * * * * * * * * * * * * * * * * * * * * * * * * * * * * //

dimensions      [1 -1 -1 0 0 0 0];

internalField   nonuniform List<scalar> 
8400
(
1.68899961492e-05
1.68899961492e-05
1.68899961492e-05
1.68899961492e-05
1.68899961492e-05
1.68899961492e-05
1.68899961492e-05
1.68899961492e-05
1.68899961492e-05
1.68899961492e-05
1.68899961492e-05
1.68899961492e-05
1.68899961492e-05
1.68899961492e-05
1.68899961492e-05
1.68899961492e-05
1.68899961492e-05
1.68899961496e-05
1.6889996173e-05
1.68899974649e-05
1.68900699912e-05
1.68914679546e-05
2.76530746445e-05
0.000105181568753
0.000186901411873
0.000136611728107
8.27784814949e-05
6.45497760167e-05
5.85460859762e-05
5.66105595887e-05
5.59831843932e-05
5.57498754689e-05
5.5632432424e-05
5.55463606137e-05
5.54727076516e-05
5.54058257332e-05
5.53436882425e-05
5.52848880456e-05
5.52284504962e-05
5.51735375535e-05
5.51198017037e-05
5.50662736062e-05
5.50123089557e-05
5.49574239658e-05
5.49011533453e-05
5.48430871691e-05
5.47830657441e-05
5.47319113932e-05
5.46668603757e-05
5.45991639078e-05
5.45287007406e-05
5.44557492117e-05
5.43803136803e-05
5.43026332308e-05
5.42231223909e-05
5.41423081389e-05
5.40608361669e-05
5.39794567927e-05
5.38990025456e-05
5.38209734249e-05
5.37457856021e-05
5.36744295245e-05
5.36079171124e-05
5.35472435852e-05
5.34933212464e-05
5.34469966963e-05
5.34089712748e-05
5.33798271839e-05
5.33599590141e-05
5.33316733857e-05
1.6889996149e-05
1.6889996149e-05
1.6889996149e-05
1.6889996149e-05
1.6889996149e-05
1.6889996149e-05
1.6889996149e-05
1.6889996149e-05
1.6889996149e-05
1.6889996149e-05
1.6889996149e-05
1.6889996149e-05
1.6889996149e-05
1.6889996149e-05
1.6889996149e-05
1.6889996149e-05
1.68899961491e-05
1.6889996151e-05
1.6889996261e-05
1.68900022768e-05
1.68903344653e-05
1.68945898389e-05
5.91654956854e-05
0.000148913481214
0.000208908549731
0.000107666155839
7.24609505637e-05
6.0562453983e-05
5.68047288425e-05
5.56598772426e-05
5.53180474701e-05
5.5202991352e-05
5.51489820447e-05
5.51048807987e-05
5.50621813407e-05
5.50190491254e-05
5.49751444119e-05
5.49189133145e-05
5.48730247148e-05
5.48260707515e-05
5.47774957262e-05
5.47271058552e-05
5.46746844325e-05
5.46200768502e-05
5.45632068228e-05
5.45037076614e-05
5.44414297018e-05
5.43762783325e-05
5.43082146916e-05
5.42372695452e-05
5.41635272174e-05
5.40872901995e-05
5.40092751604e-05
5.39293529693e-05
5.38480207759e-05
5.37659779079e-05
5.36838648072e-05
5.36023866714e-05
5.35224134331e-05
5.34453515838e-05
5.33715449881e-05
5.33019082896e-05
5.3237353361e-05
5.31787781916e-05
5.31269733586e-05
5.30826477946e-05
5.30464011323e-05
5.3018710434e-05
5.29998784943e-05
5.29762069826e-05
1.6889996149e-05
1.6889996149e-05
1.6889996149e-05
1.6889996149e-05
1.6889996149e-05
1.6889996149e-05
1.6889996149e-05
1.6889996149e-05
1.6889996149e-05
1.6889996149e-05
1.6889996149e-05
1.6889996149e-05
1.6889996149e-05
1.6889996149e-05
1.6889996149e-05
1.6889996149e-05
1.68899961491e-05
1.68899961595e-05
1.68899967375e-05
1.68900291592e-05
1.68909055483e-05
2.09046065488e-05
9.02621248592e-05
0.000171391765358
0.000154602327824
8.78672384438e-05
6.54485414648e-05
5.81240431377e-05
5.58564636639e-05
5.52065407525e-05
5.50323479238e-05
5.49686074134e-05
5.49394295628e-05
5.49134251572e-05
5.48864638702e-05
5.48465203686e-05
5.48159466539e-05
5.47827981336e-05
5.47470653335e-05
5.47086499713e-05
5.46674318198e-05
5.46234593018e-05
5.45764564985e-05
5.45262694782e-05
5.44727907485e-05
5.44159471215e-05
5.43557050523e-05
5.42920805675e-05
5.42251445103e-05
5.41550437793e-05
5.40825133558e-05
5.40073837882e-05
5.39299944748e-05
5.38508819341e-05
5.3770750903e-05
5.36900407127e-05
5.36094649415e-05
5.35302288757e-05
5.34529336987e-05
5.33782023793e-05
5.33069037457e-05
5.32398906919e-05
5.31780091229e-05
5.31220216053e-05
5.30726399785e-05
5.30304917837e-05
5.29961274144e-05
5.29700773192e-05
5.2952355974e-05
5.29319265568e-05
1.68899961489e-05
1.68899961489e-05
1.68899961489e-05
1.68899961489e-05
1.68899961489e-05
1.68899961489e-05
1.68899961489e-05
1.68899961489e-05
1.68899961489e-05
1.68899961489e-05
1.68899961489e-05
1.68899961489e-05
1.68899961489e-05
1.68899961489e-05
1.68899961489e-05
1.68899961489e-05
1.68899961498e-05
1.68899962004e-05
1.68899989979e-05
1.68901564126e-05
1.68926377811e-05
3.99261885083e-05
0.000136027042859
0.000218960088029
0.000120648001547
7.65029533598e-05
6.16877348496e-05
5.69836931588e-05
5.55687341428e-05
5.51580340341e-05
5.50448961963e-05
5.50043849675e-05
5.49757159203e-05
5.49481787656e-05
5.49195504375e-05
5.4877861783e-05
5.48459145656e-05
5.48116103665e-05
5.47747681224e-05
5.47352352627e-05
5.46928335753e-05
5.46474363693e-05
5.45990257772e-05
5.45472959747e-05
5.44921484508e-05
5.44335309599e-05
5.4371437379e-05
5.43059278079e-05
5.42371234798e-05
5.41652066511e-05
5.40907398311e-05
5.40141234499e-05
5.39354501025e-05
5.38552579592e-05
5.37743042656e-05
5.36931343976e-05
5.36124271979e-05
5.35330900737e-05
5.34562831351e-05
5.33823107086e-05
5.33119794719e-05
5.32461110982e-05
5.3185480573e-05
5.31307884979e-05
5.30826743355e-05
5.30416814409e-05
5.30082642226e-05
5.29827604136e-05
5.2965383909e-05
5.29464891649e-05
1.68899961489e-05
1.68899961489e-05
1.68899961489e-05
1.68899961489e-05
1.68899961489e-05
1.68899961489e-05
1.68899961489e-05
1.68899961489e-05
1.68899961489e-05
1.68899961489e-05
1.68899961489e-05
1.68899961489e-05
1.68899961489e-05
1.68899961489e-05
1.68899961489e-05
1.68899961489e-05
1.68899961517e-05
1.68899963104e-05
1.68900049945e-05
1.68904812229e-05
1.68961880295e-05
7.24637762669e-05
0.000155015113609
0.000191634669255
0.000100969421648
7.0154342504e-05
5.98345787976e-05
5.66344516856e-05
5.56748046027e-05
5.53985219758e-05
5.52984871137e-05
5.52487177011e-05
5.52065826094e-05
5.51655928426e-05
5.51242103571e-05
5.50819704769e-05
5.50271341552e-05
5.49822571096e-05
5.49353370615e-05
5.48862938431e-05
5.48352415941e-05
5.47815643398e-05
5.47250550939e-05
5.46655403649e-05
5.4603062805e-05
5.4537516693e-05
5.44687961446e-05
5.43969727725e-05
5.43221926851e-05
5.42446837039e-05
5.41647200031e-05
5.40827025102e-05
5.39996313669e-05
5.39154973253e-05
5.38308722395e-05
5.37465085983e-05
5.36631438645e-05
5.35814665205e-05
5.35022421006e-05
5.34267068219e-05
5.33552691494e-05
5.32885835812e-05
5.32273959815e-05
5.31723738404e-05
5.31240933395e-05
5.30830329769e-05
5.30495892723e-05
5.30240542149e-05
5.30066185849e-05
5.29881571154e-05
1.68899961489e-05
1.68899961489e-05
1.68899961489e-05
1.68899961489e-05
1.68899961489e-05
1.68899961489e-05
1.68899961489e-05
1.68899961489e-05
1.68899961489e-05
1.68899961489e-05
1.68899961489e-05
1.68899961489e-05
1.68899961489e-05
1.68899961489e-05
1.68899961489e-05
1.6889996149e-05
1.68899961591e-05
1.68899967228e-05
1.68900283647e-05
1.68908997239e-05
2.07591619655e-05
8.99351278466e-05
0.000170930315001
0.000156043529644
8.89737676083e-05
6.64176987345e-05
5.90262665447e-05
5.67381895091e-05
5.60464431134e-05
5.58309193596e-05
5.57253166852e-05
5.5655970708e-05
5.55923446498e-05
5.553038035e-05
5.54689642076e-05
5.54076036871e-05
5.53465103407e-05
5.52847472803e-05
5.52220164747e-05
5.51466275831e-05
5.50809784358e-05
5.50132075786e-05
5.49431668455e-05
5.48707628752e-05
5.47963321101e-05
5.47192650759e-05
5.46395615786e-05
5.45574387262e-05
5.44730724761e-05
5.43865394637e-05
5.42981793373e-05
5.42082709389e-05
5.41172758821e-05
5.40257250604e-05
5.39347408488e-05
5.38557410258e-05
5.37671473611e-05
5.36809059121e-05
5.35976172153e-05
5.35180147374e-05
5.34429015636e-05
5.33733566384e-05
5.33099768614e-05
5.32531477251e-05
5.32033680697e-05
5.31610956508e-05
5.31266540215e-05
5.31003415725e-05
5.30823328819e-05
5.30641370301e-05
1.68899961488e-05
1.68899961488e-05
1.68899961488e-05
1.68899961488e-05
1.68899961488e-05
1.68899961488e-05
1.68899961488e-05
1.68899961488e-05
1.68899961488e-05
1.68899961488e-05
1.68899961488e-05
1.68899961488e-05
1.68899961488e-05
1.68899961488e-05
1.68899961489e-05
1.68899961494e-05
1.68899961812e-05
1.68899979527e-05
1.68900982342e-05
1.6891874385e-05
3.20705833157e-05
0.000119013984928
0.000195345922629
0.000131378509236
8.11699613638e-05
6.42716340242e-05
5.88129305786e-05
5.71261347933e-05
5.66006347077e-05
5.64032122776e-05
5.62816743752e-05
5.6188585464e-05
5.61001631085e-05
5.60138064251e-05
5.59288480421e-05
5.58453171032e-05
5.57621949162e-05
5.56791606436e-05
5.55959890465e-05
5.55121973806e-05
5.54274299142e-05
5.53419675348e-05
5.52552037772e-05
5.51666962097e-05
5.5076310187e-05
5.49839600752e-05
5.48896287639e-05
5.47936300984e-05
5.46963587762e-05
5.45975622528e-05
5.44976630165e-05
5.43971675987e-05
5.42962678317e-05
5.4195493947e-05
5.40954621262e-05
5.39968678496e-05
5.39006590717e-05
5.38078623897e-05
5.37186801641e-05
5.3633844745e-05
5.35541001482e-05
5.34801672743e-05
5.34127137589e-05
5.33523298615e-05
5.32996995739e-05
5.32552441688e-05
5.32190914325e-05
5.31914939272e-05
5.31725882704e-05
5.31542293512e-05
1.68899961488e-05
1.68899961488e-05
1.68899961488e-05
1.68899961488e-05
1.68899961488e-05
1.68899961488e-05
1.68899961488e-05
1.68899961488e-05
1.68899961488e-05
1.68899961488e-05
1.68899961488e-05
1.68899961488e-05
1.68899961488e-05
1.68899961488e-05
1.68899961489e-05
1.68899961504e-05
1.6889996238e-05
1.68900010518e-05
1.68902686281e-05
1.68938987233e-05
5.24825147819e-05
0.000145258198089
0.000217305330467
0.00011395066308
7.59698548056e-05
6.31151509227e-05
5.89951542027e-05
5.77053249053e-05
5.72699237587e-05
5.70857887544e-05
5.69417016977e-05
5.68220347661e-05
5.67071754363e-05
5.65950723104e-05
5.64848460072e-05
5.63764319583e-05
5.62690433441e-05
5.61623521088e-05
5.60560126444e-05
5.59496926251e-05
5.58437860004e-05
5.57374120841e-05
5.56302107277e-05
5.55220960728e-05
5.54127845791e-05
5.53026317967e-05
5.51918917489e-05
5.50799551304e-05
5.49669349505e-05
5.48530729988e-05
5.47387548867e-05
5.46252227497e-05
5.4512066249e-05
5.43999144224e-05
5.42894889344e-05
5.41810885471e-05
5.40754888965e-05
5.39849326047e-05
5.38875978277e-05
5.37956086454e-05
5.37098205678e-05
5.36304794702e-05
5.35582522211e-05
5.34937210919e-05
5.34373836487e-05
5.33896506197e-05
5.33508635049e-05
5.33212662119e-05
5.3300982932e-05
5.32821063993e-05
1.68899961488e-05
1.68899961488e-05
1.68899961488e-05
1.68899961488e-05
1.68899961488e-05
1.68899961488e-05
1.68899961488e-05
1.68899961488e-05
1.68899961488e-05
1.68899961488e-05
1.68899961488e-05
1.68899961488e-05
1.68899961488e-05
1.68899961488e-05
1.68899961489e-05
1.68899961522e-05
1.68899963409e-05
1.68900065856e-05
1.68905594378e-05
1.68970784669e-05
7.65322146091e-05
0.000157284124553
0.000188041695855
0.000101736811614
7.24266420582e-05
6.26172367852e-05
5.94910476164e-05
5.84611240185e-05
5.80819785182e-05
5.78823119971e-05
5.77086718121e-05
5.75573983812e-05
5.7410791191e-05
5.72681908341e-05
5.71288280011e-05
5.69917404776e-05
5.68565701375e-05
5.67232647616e-05
5.65917858122e-05
5.64611378587e-05
5.63314422352e-05
5.62019162847e-05
5.60722681027e-05
5.59423367814e-05
5.58122057938e-05
5.56935948016e-05
5.55629733219e-05
5.54320714612e-05
5.53008537793e-05
5.51704090681e-05
5.50407320714e-05
5.49118913083e-05
5.47846462831e-05
5.46590725565e-05
5.45357762981e-05
5.44154834325e-05
5.42991948771e-05
5.41880726613e-05
5.40820982444e-05
5.39818870807e-05
5.38881739396e-05
5.38017973936e-05
5.37235440988e-05
5.3654295417e-05
5.35939067786e-05
5.35425860095e-05
5.35008238743e-05
5.34689915986e-05
5.34472577997e-05
5.3427900506e-05
1.68899961488e-05
1.68899961488e-05
1.68899961488e-05
1.68899961488e-05
1.68899961488e-05
1.68899961488e-05
1.68899961488e-05
1.68899961488e-05
1.68899961488e-05
1.68899961488e-05
1.68899961488e-05
1.68899961488e-05
1.68899961488e-05
1.68899961488e-05
1.6889996149e-05
1.68899961596e-05
1.68899967517e-05
1.68900297466e-05
1.68909295338e-05
2.08702406501e-05
8.99874389433e-05
0.000170437530297
0.0001599606839
9.28303801551e-05
7.01703151797e-05
6.26284041517e-05
6.01984299861e-05
5.93610238043e-05
5.90097263734e-05
5.87818023173e-05
5.85840297937e-05
5.8396063808e-05
5.82138497488e-05
5.80375540954e-05
5.78653395428e-05
5.76969860913e-05
5.75315944358e-05
5.73686622129e-05
5.72085538107e-05
5.70506115871e-05
5.68940099458e-05
5.67383971378e-05
5.65843415129e-05
5.64311313846e-05
5.62786679624e-05
5.612670363e-05
5.59751010359e-05
5.58239154777e-05
5.56738373769e-05
5.55249879377e-05
5.5377303194e-05
5.52312450498e-05
5.50876286876e-05
5.49472258771e-05
5.48212270137e-05
5.46884904924e-05
5.45604848168e-05
5.44381215347e-05
5.43220350163e-05
5.42126693113e-05
5.41106997719e-05
5.4016860203e-05
5.39318412322e-05
5.38563947944e-05
5.3791008378e-05
5.37356512223e-05
5.36906431624e-05
5.36562409387e-05
5.36325909649e-05
5.36122637994e-05
1.68899961488e-05
1.68899961488e-05
1.68899961488e-05
1.68899961488e-05
1.68899961488e-05
1.68899961488e-05
1.68899961488e-05
1.68899961488e-05
1.68899961488e-05
1.68899961488e-05
1.68899961488e-05
1.68899961488e-05
1.68899961488e-05
1.68899961488e-05
1.68899961493e-05
1.6889996179e-05
1.68899978147e-05
1.68900894415e-05
1.68917585842e-05
3.05108311239e-05
0.000112826416281
0.000190001001638
0.000137905387992
8.62057170755e-05
6.87379752059e-05
6.3006216005e-05
6.10984031134e-05
6.03868117846e-05
6.00316122271e-05
5.9770400244e-05
5.9533028664e-05
5.9306038796e-05
5.90862105663e-05
5.88720619636e-05
5.86639540963e-05
5.84611269779e-05
5.82623556711e-05
5.80677414093e-05
5.7877053213e-05
5.76895852155e-05
5.75045950025e-05
5.73215731203e-05
5.7140647523e-05
5.69620069593e-05
5.67845303196e-05
5.66208897792e-05
5.64462698854e-05
5.62730519999e-05
5.61024127731e-05
5.59336267393e-05
5.57668456649e-05
5.56026890391e-05
5.54425574411e-05
5.52860135371e-05
5.51341224561e-05
5.49870530346e-05
5.48455541207e-05
5.47103709038e-05
5.45828116583e-05
5.44755448592e-05
5.43641941299e-05
5.42622559321e-05
5.41699802763e-05
5.40879227959e-05
5.40167675547e-05
5.39569164477e-05
5.39083020483e-05
5.38710837747e-05
5.3845358008e-05
5.38239722131e-05
1.68899961488e-05
1.68899961488e-05
1.68899961488e-05
1.68899961488e-05
1.68899961488e-05
1.68899961488e-05
1.68899961488e-05
1.68899961488e-05
1.68899961488e-05
1.68899961488e-05
1.68899961488e-05
1.68899961488e-05
1.68899961488e-05
1.68899961488e-05
1.68899961503e-05
1.68899962359e-05
1.6890000896e-05
1.68902571211e-05
1.6893791628e-05
5.04177697356e-05
0.000143710823956
0.000220783138572
0.000120529050404
8.13771398499e-05
6.80346994253e-05
6.36205992763e-05
6.2116268881e-05
6.15059729105e-05
6.11362877744e-05
6.08383829177e-05
6.0559070321e-05
6.02891967844e-05
6.00288581954e-05
5.97754998529e-05
5.9529397873e-05
5.92901332476e-05
5.90567340243e-05
5.88278508319e-05
5.8615496449e-05
5.83959951513e-05
5.8180507931e-05
5.79681592257e-05
5.77584952616e-05
5.75523195724e-05
5.73487425029e-05
5.7147272523e-05
5.69488179811e-05
5.67532274161e-05
5.65607071653e-05
5.63707011931e-05
5.61959690195e-05
5.6012894035e-05
5.58339268914e-05
5.56603160188e-05
5.54922189888e-05
5.53304616577e-05
5.51753679594e-05
5.50275892057e-05
5.48878372868e-05
5.47572757096e-05
5.46365144443e-05
5.45257797831e-05
5.44258139233e-05
5.43493955245e-05
5.42721849149e-05
5.42071197449e-05
5.41543442054e-05
5.41139471348e-05
5.40859489903e-05
5.40633081627e-05
1.68899961488e-05
1.68899961488e-05
1.68899961488e-05
1.68899961488e-05
1.68899961488e-05
1.68899961488e-05
1.68899961488e-05
1.68899961488e-05
1.68899961488e-05
1.68899961488e-05
1.68899961488e-05
1.68899961488e-05
1.68899961488e-05
1.68899961489e-05
1.68899961524e-05
1.68899963518e-05
1.68900070503e-05
1.6890575584e-05
1.68972427914e-05
7.61700311818e-05
0.000156527816316
0.000194245774894
0.000107740423652
7.80104943461e-05
6.78945671424e-05
6.45435840246e-05
6.33013146794e-05
6.2736614662e-05
6.23347833499e-05
6.19900851419e-05
6.1663067893e-05
6.13480309088e-05
6.10427173655e-05
6.07594002133e-05
6.04720050241e-05
6.01918018938e-05
5.99197502271e-05
5.96546282685e-05
5.93952199591e-05
5.91412758555e-05
5.88933462297e-05
5.8649482702e-05
5.84100507145e-05
5.81867918256e-05
5.79555388215e-05
5.77280736389e-05
5.75040889161e-05
5.72833140149e-05
5.70671373188e-05
5.68552040829e-05
5.66478780087e-05
5.64449761331e-05
5.62468780417e-05
5.60682728668e-05
5.58831722223e-05
5.57051463571e-05
5.55351993274e-05
5.53742475419e-05
5.52225024147e-05
5.50808587084e-05
5.49496810399e-05
5.48295890479e-05
5.47211692192e-05
5.4624994249e-05
5.45419464356e-05
5.44716706721e-05
5.44270292314e-05
5.4383344122e-05
5.43532379225e-05
5.43297585913e-05
1.68899961488e-05
1.68899961488e-05
1.68899961488e-05
1.68899961488e-05
1.68899961488e-05
1.68899961488e-05
1.68899961488e-05
1.68899961488e-05
1.68899961488e-05
1.68899961488e-05
1.68899961488e-05
1.68899961488e-05
1.68899961488e-05
1.6889996149e-05
1.68899961619e-05
1.68899968657e-05
1.68900355484e-05
1.68910242917e-05
2.15772464928e-05
9.12178301842e-05
0.000170885073153
0.000164018764128
9.81311295204e-05
7.58316439928e-05
6.82716749903e-05
6.56614265865e-05
6.46272632448e-05
6.40523743622e-05
6.36189003758e-05
6.32208249281e-05
6.28536974214e-05
6.24877268391e-05
6.21348713815e-05
6.17924728e-05
6.14610961402e-05
6.11390677448e-05
6.08263371099e-05
6.05222387368e-05
6.02378161027e-05
5.99478532351e-05
5.96637215237e-05
5.93868523106e-05
5.91150358205e-05
5.8849143099e-05
5.85888791678e-05
5.83334498401e-05
5.8094800999e-05
5.78491386562e-05
5.76084261588e-05
5.73724394671e-05
5.71430849876e-05
5.69197238306e-05
5.67027891753e-05
5.64923155754e-05
5.63024956552e-05
5.61086870791e-05
5.5924104995e-05
5.57490334672e-05
5.55840106927e-05
5.54299052359e-05
5.52882448617e-05
5.5158965479e-05
5.50424188078e-05
5.4939216213e-05
5.48496051438e-05
5.47740472429e-05
5.47128124904e-05
5.46657582688e-05
5.46459863721e-05
5.46082819908e-05
1.68899961488e-05
1.68899961488e-05
1.68899961488e-05
1.68899961488e-05
1.68899961488e-05
1.68899961488e-05
1.68899961488e-05
1.68899961488e-05
1.68899961488e-05
1.68899961488e-05
1.68899961488e-05
1.68899961488e-05
1.68899961488e-05
1.68899961496e-05
1.68899961934e-05
1.68899985642e-05
1.68901282188e-05
1.68922917575e-05
3.47085058936e-05
0.000125801029085
0.00019517031002
0.000139681273
9.11642467622e-05
7.4614311508e-05
6.89999750585e-05
6.69539307067e-05
6.60457987257e-05
6.54743555446e-05
6.49877363507e-05
6.4533103833e-05
6.40971537715e-05
6.36781603121e-05
6.32729102921e-05
6.28822285267e-05
6.25156517608e-05
6.21494075459e-05
6.17939579804e-05
6.14478081107e-05
6.11119930964e-05
6.07847694612e-05
6.04781533305e-05
6.01651394104e-05
5.98604386956e-05
5.95627571954e-05
5.9270806853e-05
5.89853251572e-05
5.87064353799e-05
5.84467514753e-05
5.81798805511e-05
5.7920652225e-05
5.76685253506e-05
5.742341816e-05
5.71854217658e-05
5.6956480745e-05
5.67364023224e-05
5.65387051098e-05
5.63384135707e-05
5.61490260246e-05
5.59709161847e-05
5.58049026195e-05
5.56524055939e-05
5.55129873076e-05
5.53877832734e-05
5.52769821978e-05
5.51809623365e-05
5.51001635165e-05
5.50344485749e-05
5.49838261074e-05
5.49616369353e-05
5.49226736148e-05
1.68899961488e-05
1.68899961488e-05
1.68899961488e-05
1.68899961488e-05
1.68899961488e-05
1.68899961488e-05
1.68899961488e-05
1.68899961488e-05
1.68899961488e-05
1.68899961488e-05
1.68899961488e-05
1.68899961488e-05
1.68899961488e-05
1.68899961513e-05
1.68899962898e-05
1.68900036908e-05
1.68903983623e-05
1.68953176095e-05
6.17544736323e-05
0.000149066978095
0.000216206247856
0.000121407475157
8.62522242153e-05
7.41846600682e-05
7.00125319322e-05
6.83925651229e-05
6.75565908276e-05
6.69508117702e-05
6.64076440095e-05
6.5891373225e-05
6.53967668527e-05
6.49333650713e-05
6.44750699873e-05
6.4032080398e-05
6.36054183034e-05
6.31918064514e-05
6.28043454233e-05
6.2415622413e-05
6.20386942559e-05
6.16711594656e-05
6.13144348841e-05
6.09656723804e-05
6.06401724853e-05
6.03092251565e-05
5.99853330171e-05
5.96700418709e-05
5.93625432826e-05
5.90618774005e-05
5.87821719997e-05
5.84974767856e-05
5.82211754426e-05
5.79536857801e-05
5.76947468139e-05
5.74457217346e-05
5.72073264293e-05
5.69930825174e-05
5.67765285774e-05
5.65724632693e-05
5.63814967406e-05
5.62035907609e-05
5.60394032679e-05
5.58896844814e-05
5.57556500539e-05
5.56369903214e-05
5.55342907144e-05
5.54476371076e-05
5.5376993787e-05
5.53366561179e-05
5.52988523111e-05
5.5271424884e-05
1.68899961488e-05
1.68899961488e-05
1.68899961488e-05
1.68899961488e-05
1.68899961488e-05
1.68899961488e-05
1.68899961488e-05
1.68899961488e-05
1.68899961488e-05
1.68899961488e-05
1.68899961488e-05
1.68899961488e-05
1.68899961489e-05
1.68899961582e-05
1.68899966605e-05
1.68900238196e-05
1.68908703195e-05
1.94860815491e-05
8.59624239444e-05
0.000164481949077
0.000181040324072
0.000108353229846
8.31568725067e-05
7.44430712956e-05
7.13247061369e-05
6.99677866838e-05
6.91559488382e-05
6.84970207328e-05
6.78883781918e-05
6.73207426591e-05
6.67627217453e-05
6.62280699779e-05
6.57120032201e-05
6.52287205239e-05
6.47489641023e-05
6.42855678483e-05
6.38383699421e-05
6.34049487887e-05
6.29981957391e-05
6.25909157381e-05
6.21953645629e-05
6.18096176296e-05
6.14349914937e-05
6.10838034753e-05
6.07271392844e-05
6.03809956167e-05
6.00441364253e-05
5.97149788325e-05
5.94105197331e-05
5.90997328917e-05
5.87992888171e-05
5.8509170279e-05
5.82291131955e-05
5.79593138595e-05
5.77019336631e-05
5.74707143498e-05
5.72378686584e-05
5.70186961705e-05
5.68133104272e-05
5.6622299868e-05
5.64475021176e-05
5.62881844134e-05
5.61452690463e-05
5.60186186243e-05
5.59228855071e-05
5.58303437212e-05
5.57551807073e-05
5.5697371839e-05
5.56569026641e-05
5.56281156433e-05
1.68899961488e-05
1.68899961488e-05
1.68899961488e-05
1.68899961488e-05
1.68899961488e-05
1.68899961488e-05
1.68899961488e-05
1.68899961488e-05
1.68899961488e-05
1.68899961488e-05
1.68899961488e-05
1.68899961488e-05
1.68899961495e-05
1.68899961865e-05
1.68899981786e-05
1.68901062134e-05
1.68919980134e-05
3.17415179901e-05
0.000113955664978
0.000186170431229
0.000150815556537
9.9102912622e-05
8.14485148422e-05
7.52421398626e-05
7.28645482874e-05
7.16679035985e-05
7.08276660134e-05
7.01021254359e-05
6.94339726976e-05
6.87834512039e-05
6.81615399143e-05
6.75765577907e-05
6.7002465883e-05
6.6448980547e-05
6.59171106249e-05
6.5416475056e-05
6.49194239486e-05
6.44400149159e-05
6.39744990532e-05
6.35386699028e-05
6.31018801289e-05
6.26782111875e-05
6.2267424471e-05
6.18817983123e-05
6.14919836508e-05
6.11144215689e-05
6.0747478347e-05
6.03908192456e-05
6.00584867419e-05
5.97229172351e-05
5.93986470548e-05
5.90846805969e-05
5.87835548357e-05
5.84945943769e-05
5.82327277028e-05
5.79693801076e-05
5.77196359279e-05
5.74855581557e-05
5.72666618193e-05
5.70635510807e-05
5.68770742392e-05
5.67071615849e-05
5.65688904368e-05
5.64339444076e-05
5.63172142293e-05
5.62189235146e-05
5.61389312849e-05
5.60773155181e-05
5.60340395924e-05
5.6003717876e-05
1.68899961488e-05
1.68899961488e-05
1.68899961488e-05
1.68899961488e-05
1.68899961488e-05
1.68899961488e-05
1.68899961488e-05
1.68899961488e-05
1.68899961488e-05
1.68899961488e-05
1.68899961488e-05
1.68899961488e-05
1.68899961516e-05
1.68899963043e-05
1.68900043414e-05
1.68904245483e-05
1.68956054789e-05
6.23998926452e-05
0.000148809721145
0.000219375471008
0.00012849370456
9.30583349383e-05
8.08254460117e-05
7.64192875003e-05
7.45278428144e-05
7.34305468452e-05
7.25586588548e-05
7.17610775689e-05
7.10051386874e-05
7.02964771129e-05
6.96055130567e-05
6.89448445941e-05
6.83234121148e-05
6.77125819286e-05
6.71249598045e-05
6.65736068179e-05
6.60268798044e-05
6.55001695828e-05
6.49900196611e-05
6.45115288688e-05
6.40338837115e-05
6.35701418736e-05
6.31214397081e-05
6.26999138945e-05
6.22769420682e-05
6.1867193254e-05
6.14689852985e-05
6.10837861647e-05
6.07248848707e-05
6.03628655436e-05
6.00143513744e-05
5.96786449909e-05
5.93559384422e-05
5.90613422784e-05
5.87661039605e-05
5.84859414155e-05
5.82204044863e-05
5.7970939937e-05
5.77383654903e-05
5.75229671754e-05
5.73403850257e-05
5.71602745832e-05
5.69988024895e-05
5.68562522162e-05
5.67326619829e-05
5.66283012432e-05
5.65433241303e-05
5.64777519256e-05
5.64315225651e-05
5.63994421372e-05
1.68899961488e-05
1.68899961488e-05
1.68899961488e-05
1.68899961488e-05
1.68899961488e-05
1.68899961488e-05
1.68899961488e-05
1.68899961488e-05
1.68899961488e-05
1.68899961488e-05
1.68899961488e-05
1.6889996149e-05
1.68899961626e-05
1.68899968872e-05
1.68900354131e-05
1.68910493363e-05
2.10146605832e-05
8.92368304155e-05
0.00016698092359
0.00018177170902
0.000113297478461
8.95842142942e-05
8.11735675243e-05
7.79478107675e-05
7.63551496188e-05
7.52584298738e-05
7.43194605042e-05
7.3443467766e-05
7.26236407496e-05
7.18281600431e-05
7.10805431346e-05
7.0351664068e-05
6.96527627606e-05
6.89969792995e-05
6.83530209212e-05
6.77347866168e-05
6.71524726312e-05
6.65778380134e-05
6.6022230847e-05
6.55003783358e-05
6.49817448259e-05
6.44797076045e-05
6.39925139367e-05
6.35367747128e-05
6.30788718863e-05
6.26362446067e-05
6.2207689112e-05
6.1807938639e-05
6.14059077107e-05
6.10182622951e-05
6.06453914279e-05
6.02868018944e-05
5.99574646623e-05
5.96282400852e-05
5.93147987407e-05
5.90173039327e-05
5.87364034294e-05
5.8472593656e-05
5.82422484108e-05
5.80139642538e-05
5.78041428744e-05
5.76142092777e-05
5.74438226463e-05
5.72935648583e-05
5.71634077312e-05
5.70535444766e-05
5.6964224465e-05
5.68951532738e-05
5.68462190111e-05
5.68126408863e-05
1.68899961488e-05
1.68899961488e-05
1.68899961488e-05
1.68899961488e-05
1.68899961488e-05
1.68899961488e-05
1.68899961488e-05
1.68899961488e-05
1.68899961488e-05
1.68899961488e-05
1.68899961488e-05
1.68899961501e-05
1.68899962193e-05
1.6889999849e-05
1.68901907731e-05
1.68930943007e-05
4.06127415458e-05
0.000133604530162
0.000198651624115
0.000149124991884
0.00010361964953
8.79101926355e-05
8.21702946448e-05
7.97010318448e-05
7.82489480383e-05
7.71272996177e-05
7.61225594503e-05
7.5161915504e-05
7.42624173374e-05
7.33904178727e-05
7.25591713337e-05
7.17765032106e-05
7.10149912838e-05
7.02990004262e-05
6.95966555536e-05
6.8923326073e-05
6.82891777639e-05
6.76660298143e-05
6.70654869024e-05
6.65007493239e-05
6.59393263394e-05
6.53981872676e-05
6.48904302164e-05
6.43822226867e-05
6.38919449987e-05
6.34173735648e-05
6.29738901983e-05
6.25300644582e-05
6.21017447814e-05
6.1687854056e-05
6.12900054197e-05
6.09240287964e-05
6.05578937208e-05
6.02087497661e-05
5.98769369788e-05
5.95615498918e-05
5.92816870975e-05
5.90031531415e-05
5.87436531224e-05
5.85031831405e-05
5.82833440226e-05
5.80837815433e-05
5.79049840432e-05
5.77467527258e-05
5.76266456133e-05
5.75109752037e-05
5.74166922883e-05
5.73437060785e-05
5.72917578033e-05
5.72564671324e-05
1.68899961488e-05
1.68899961488e-05
1.68899961488e-05
1.68899961488e-05
1.68899961488e-05
1.68899961488e-05
1.68899961488e-05
1.68899961488e-05
1.68899961488e-05
1.68899961488e-05
1.68899961489e-05
1.68899961553e-05
1.68899965022e-05
1.68900147546e-05
1.6890754739e-05
1.78056612613e-05
7.986952507e-05
0.000157489580741
0.000206644299268
0.00012696564057
9.78847815572e-05
8.76080059146e-05
8.35928356143e-05
8.15785896659e-05
8.02066408781e-05
7.90190026891e-05
7.79154961956e-05
7.68853617054e-05
7.5891062151e-05
7.49593894998e-05
7.4055123811e-05
7.32068049591e-05
7.23807376434e-05
7.16056936284e-05
7.08465204876e-05
7.01194206522e-05
6.94353750499e-05
6.87616945272e-05
6.81143066187e-05
6.75044963925e-05
6.69026868612e-05
6.63221243497e-05
6.57767186406e-05
6.52341053766e-05
6.47106669411e-05
6.42205410117e-05
6.37310944214e-05
6.32593375165e-05
6.28044339215e-05
6.23828760263e-05
6.19612633192e-05
6.15572697199e-05
6.11705702273e-05
6.08010297395e-05
6.04679805515e-05
6.01359902587e-05
5.9823321505e-05
5.95306028308e-05
5.92582630828e-05
5.90064499738e-05
5.87927086903e-05
5.85835356115e-05
5.83959436307e-05
5.8230540254e-05
5.80870975945e-05
5.7966137377e-05
5.7867360858e-05
5.77905762605e-05
5.77356458495e-05
5.76986530259e-05
1.68899961488e-05
1.68899961488e-05
1.68899961488e-05
1.68899961488e-05
1.68899961488e-05
1.68899961488e-05
1.68899961488e-05
1.68899961488e-05
1.68899961488e-05
1.68899961488e-05
1.68899961496e-05
1.68899961933e-05
1.68899984713e-05
1.68901175799e-05
1.6892157493e-05
3.18848954502e-05
0.000111689940551
0.000181770068503
0.000165548842256
0.000113359602837
9.51184226253e-05
8.83435262188e-05
8.53761613524e-05
8.35843045471e-05
8.21804484781e-05
8.09070289622e-05
7.97248940139e-05
7.86056788366e-05
7.75291044017e-05
7.65210439592e-05
7.55459115134e-05
7.46308329713e-05
7.37410184108e-05
7.29071073518e-05
7.20915199618e-05
7.13267376831e-05
7.05771073955e-05
6.98569519261e-05
6.91794708493e-05
6.85119854713e-05
6.7868869164e-05
6.72649276691e-05
6.66659583535e-05
6.6087421423e-05
6.55474617869e-05
6.50102643019e-05
6.44921843105e-05
6.39930746207e-05
6.3528688552e-05
6.30658044733e-05
6.2621860907e-05
6.21965989726e-05
6.18076870547e-05
6.14195280711e-05
6.10511268274e-05
6.07035649288e-05
6.0376343677e-05
6.00885348928e-05
5.98031246894e-05
5.95400039417e-05
5.9298972674e-05
5.90803322608e-05
5.88846630762e-05
5.87116879253e-05
5.85618365148e-05
5.84531693264e-05
5.83491696946e-05
5.82685190409e-05
5.82105073254e-05
5.8171612562e-05
1.68899961488e-05
1.68899961488e-05
1.68899961488e-05
1.68899961488e-05
1.68899961488e-05
1.68899961488e-05
1.68899961488e-05
1.68899961488e-05
1.68899961488e-05
1.68899961489e-05
1.68899961539e-05
1.68899964157e-05
1.68900096618e-05
1.68906613598e-05
1.68980820565e-05
7.46997566313e-05
0.000153182322744
0.000218416688491