/*--------------------------------*- C++ -*----------------------------------*\
| =========                 |                                                 |
| \\      /  F ield         | foam-extend: Open Source CFD                    |
|  \\    /   O peration     | Version:     4.1                                |
|   \\  /    A nd           | Web:         http://www.foam-extend.org         |
|    \\/     M anipulation  |                                                 |
\*---------------------------------------------------------------------------*/
FoamFile
{
    version     2.0;
    format      ascii;
    class       volScalarField;
    location    "0.0009";
    object      N;
}
// * * * * * * * * * * * * * * * * * * * * * * * * * * * * * * * * * * * * * //

dimensions      [0 0 0 0 0 0 0];

internalField   nonuniform List<scalar> 
8400
(
7.71492892205e-105
7.71492892209e-105
7.71492892213e-105
7.71492892217e-105
7.71492892221e-105
7.71492892225e-105
7.71492892229e-105
7.71492892232e-105
7.71492892236e-105
7.7149289224e-105
7.71492892243e-105
7.71492892247e-105
7.7149289225e-105
7.71492892254e-105
7.71492892257e-105
7.71492892261e-105
7.71492892332e-105
7.71492896218e-105
7.71493118382e-105
7.71505365704e-105
7.72192949332e-105
7.8544630174e-105
6.36829536839e-38
0.000276803634477
0.657166899494
0.55379418469
0.365815898565
0.273205143734
0.234407122524
0.219411954821
0.214265537218
0.212564295391
0.211884729664
0.211470747435
0.211140442494
0.210845700233
0.210572412519
0.210312886961
0.210062356003
0.209816949644
0.209574828013
0.209331950758
0.209085522975
0.208833430333
0.208573614354
0.208304258247
0.20802371015
0.207786429666
0.207480371359
0.207161771004
0.206829504641
0.206484049134
0.206126035753
0.205756808885
0.205378414438
0.20499273519
0.204603327615
0.20421396955
0.203828617823
0.203453578628
0.203091684605
0.202747742554
0.202426647101
0.202132656935
0.20187053703
0.201644506804
0.201457877193
0.201313420893
0.201212753319
0.200972163584
7.7149289091e-105
7.71492890911e-105
7.71492890913e-105
7.71492890914e-105
7.71492890916e-105
7.71492890918e-105
7.71492890919e-105
7.71492890921e-105
7.71492890922e-105
7.71492890924e-105
7.71492890925e-105
7.71492890927e-105
7.71492890928e-105
7.71492890929e-105
7.71492890931e-105
7.71492890938e-105
7.71492891259e-105
7.71492909546e-105
7.71493952475e-105
7.71550985134e-105
7.74700288722e-105
8.15043235327e-105
1.06858409693e-12
0.153328676718
0.709539822892
0.465379581701
0.317085215708
0.249955069413
0.223160776433
0.213498471122
0.210464982735
0.209516543997
0.209125202901
0.208842889993
0.208581912775
0.208323738293
0.208065233387
0.207748442331
0.207483932664
0.207215289593
0.206941113993
0.206660566029
0.206372608469
0.20607623584
0.205770585101
0.205454524267
0.205127266239
0.204788327711
0.204436893712
0.204073594197
0.203698710724
0.20331339362
0.202920172217
0.202519307707
0.20211312345
0.201703743424
0.201294584298
0.200889685669
0.200493065452
0.200110685613
0.199744926818
0.199400119156
0.19908061165
0.198789745349
0.198532316994
0.198311658494
0.198130592538
0.197991353246
0.197895140733
0.197697976327
7.7149289027e-105
7.71492890271e-105
7.71492890272e-105
7.71492890273e-105
7.71492890274e-105
7.71492890275e-105
7.71492890276e-105
7.71492890277e-105
7.71492890278e-105
7.71492890279e-105
7.71492890279e-105
7.7149289028e-105
7.71492890281e-105
7.71492890282e-105
7.71492890283e-105
7.71492890314e-105
7.71492892022e-105
7.71492990178e-105
7.71498470314e-105
7.71805842901e-105
7.80114424975e-105
2.44843725517e-38
9.5206560379e-06
0.480170357438
0.599638507809
0.388898688755
0.279936039325
0.233953461661
0.216298746829
0.210466382267
0.20881314626
0.208260595789
0.208013104376
0.207813104683
0.207618854287
0.207364722388
0.207159877085
0.206945731273
0.206722646805
0.20649011024
0.206247450728
0.205994092985
0.205729090914
0.205451702591
0.20516129007
0.204857403777
0.204539254274
0.204207342997
0.203861870984
0.203503405023
0.203134327671
0.20275458643
0.202365775151
0.201969868579
0.201568919964
0.201166646667
0.200766360196
0.200373075423
0.199989930121
0.199620170795
0.199267895014
0.198936314427
0.198630075082
0.198353009568
0.198108494276
0.197899503947
0.197728582078
0.197598047403
0.1975080967
0.197340770278
7.7149288987e-105
7.7149288987e-105
7.71492889871e-105
7.71492889872e-105
7.71492889872e-105
7.71492889873e-105
7.71492889874e-105
7.71492889874e-105
7.71492889875e-105
7.71492889876e-105
7.71492889876e-105
7.71492889877e-105
7.71492889878e-105
7.71492889878e-105
7.71492889882e-105
7.71492890027e-105
7.71492898374e-105
7.71493378234e-105
7.71519899822e-105
7.7301226561e-105
7.96536808391e-105
4.4835131545e-23
0.0413932546263
0.750020383152
0.508314418958
0.337346867383
0.257596080633
0.225324561807
0.213547723553
0.209832905229
0.208791458629
0.208429862902
0.208201253538
0.207997702288
0.207797120651
0.2075371722
0.207328026016
0.207110841233
0.206885308429
0.20665062885
0.206405781098
0.206149818509
0.205881903012
0.205601046396
0.205306606154
0.204998201134
0.204675405487
0.204338339021
0.203987718721
0.203624261656
0.203249986179
0.202866576248
0.202474862537
0.202077293646
0.201675756743
0.201274081129
0.200875825128
0.200485066924
0.200106737955
0.19974290268
0.199397343073
0.199073834995
0.198775390741
0.198506234309
0.198269368269
0.198067347983
0.197902310808
0.197775839464
0.197688798655
0.197538063126
7.71492889593e-105
7.71492889593e-105
7.71492889594e-105
7.71492889594e-105
7.71492889595e-105
7.71492889595e-105
7.71492889596e-105
7.71492889596e-105
7.71492889597e-105
7.71492889597e-105
7.71492889598e-105
7.71492889598e-105
7.71492889599e-105
7.714928896e-105
7.71492889608e-105
7.71492890071e-105
7.71492916459e-105
7.71494421058e-105
7.71576750058e-105
7.76091620258e-105
8.30194835482e-105
8.37603339038e-09
0.236497775127
0.677476788924
0.441043599561
0.305112800134
0.245017695266
0.22152266407
0.213294758288
0.210826725925
0.210020867679
0.209657894034
0.209377536945
0.209115939445
0.208859002944
0.208602878391
0.208289201792
0.208027369162
0.207758999163
0.207484018586
0.207202386117
0.206911537703
0.206610221841
0.206297354611
0.205972364557
0.205634749665
0.205284248244
0.204921079073
0.204545486761
0.204158545776
0.203761675469
0.203356543084
0.202946489229
0.202532343307
0.202116873552
0.20170297366
0.201294080433
0.200894298402
0.200507065342
0.200137603466
0.199788306816
0.199462477028
0.199163742861
0.198894975092
0.198658671256
0.198457588517
0.198293528723
0.198167842263
0.19808132766
0.197938666522
7.71492889389e-105
7.7149288939e-105
7.7149288939e-105
7.71492889391e-105
7.71492889391e-105
7.71492889392e-105
7.71492889392e-105
7.71492889392e-105
7.71492889393e-105
7.71492889393e-105
7.71492889394e-105
7.71492889394e-105
7.71492889395e-105
7.71492889395e-105
7.71492889425e-105
7.71492891082e-105
7.71492986552e-105
7.71498330795e-105
7.71798310918e-105
7.80059206316e-105
2.36042434154e-38
8.65112705051e-06
0.473289071094
0.602884688543
0.393050717223
0.284249755616
0.238225604224
0.220605656705
0.21466090126
0.212858043686
0.212126665017
0.211698874517
0.211327370213
0.210973217088
0.210627214452
0.210286019341
0.209949464741
0.209613460313
0.209277014414
0.208881921734
0.208536732845
0.208183833628
0.207822835969
0.20745302491
0.207075183967
0.206687052327
0.206288464189
0.205879702775
0.205461531648
0.205034918476
0.204601269409
0.204160898245
0.203716257864
0.203269715548
0.202824909779
0.20244027098
0.202008719724
0.201589554782
0.201184333459
0.200797144986
0.20043195675
0.200093896735
0.199786056231
0.199510384339
0.199269011998
0.199063910121
0.198896492868
0.198767991867
0.198679305729
0.198541200061
7.71492889235e-105
7.71492889235e-105
7.71492889235e-105
7.71492889236e-105
7.71492889236e-105
7.71492889236e-105
7.71492889237e-105
7.71492889237e-105
7.71492889238e-105
7.71492889238e-105
7.71492889238e-105
7.71492889239e-105
7.71492889239e-105
7.71492889241e-105
7.71492889331e-105
7.71492894535e-105
7.71493195879e-105
7.71509990437e-105
7.72460706287e-105
7.89299453121e-105
2.66260176089e-24
0.00355503324171
0.70994794407
0.539384793984
0.358168071682
0.270862793618
0.234924339745
0.221516233709
0.217098457507
0.215624577941
0.214882628211
0.214362358776
0.213883367447
0.213421955949
0.212971923627
0.212531842262
0.21209755846
0.211667346363
0.21123891232
0.210810759305
0.210380868914
0.209949559342
0.209514181159
0.209072798528
0.20862417158
0.208167665172
0.20770357914
0.207232836923
0.206756881567
0.206275215767
0.205789347237
0.205300992681
0.204811699345
0.204323458716
0.203838830475
0.203361856566
0.202896765169
0.202447908839
0.202016948651
0.201607249002
0.201221459199
0.200863973225
0.20053808628
0.200246554473
0.199992285859
0.199777227341
0.199602285745
0.199468640882
0.199376820009
0.199241641206
7.71492889113e-105
7.71492889114e-105
7.71492889114e-105
7.71492889114e-105
7.71492889114e-105
7.71492889115e-105
7.71492889115e-105
7.71492889115e-105
7.71492889116e-105
7.71492889116e-105
7.71492889116e-105
7.71492889117e-105
7.71492889117e-105
7.71492889122e-105
7.71492889375e-105
7.71492903893e-105
7.71493734541e-105
7.71539371698e-105
7.74076120892e-105
8.08491134126e-105
1.43003070686e-14
0.111027879831
0.727807689348
0.486023266134
0.332698226555
0.262403340108
0.23401463384
0.223649398607
0.220200062447
0.218954529752
0.218150934189
0.217521869411
0.216929114891
0.216355075726
0.215794159598
0.215244506278
0.214703316805
0.214168002311
0.213636874442
0.213108780763
0.212584184431
0.21205964133
0.211533306918
0.211003593701
0.210470172632
0.209934131471
0.209396273491
0.208854289508
0.208307574478
0.207757710975
0.207206875404
0.206659834046
0.206115561756
0.205576297522
0.205044881912
0.204523013604
0.204013799677
0.203580246618
0.20311299029
0.202671326389
0.202258892178
0.201877543379
0.201530584936
0.20122048371
0.2009495243
0.200720029792
0.200533653988
0.200391610117
0.20029434798
0.200159595175
7.71492889016e-105
7.71492889016e-105
7.71492889016e-105
7.71492889017e-105
7.71492889017e-105
7.71492889017e-105
7.71492889017e-105
7.71492889018e-105
7.71492889018e-105
7.71492889018e-105
7.71492889018e-105
7.71492889019e-105
7.71492889019e-105
7.71492889029e-105
7.71492889588e-105
7.71492921236e-105
7.71494709758e-105
7.71591834422e-105
7.76833134453e-105
8.38636601975e-105
6.96497674589e-08
0.269440346368
0.670284538132
0.442556522202
0.3139329284
0.257366886489
0.234970120949
0.226815893996
0.224038722586
0.222837875998
0.221931401302
0.221170126273
0.22044059411
0.219733973018
0.21904577062
0.218371034343
0.217707748661
0.217055763217
0.216414120528
0.215778953688
0.215149257824
0.214522656051
0.213896185371
0.213269711202
0.21264281292
0.212073067497
0.211446444629
0.210818953478
0.210190979765
0.209566716465
0.208946627457
0.208331332551
0.207723503608
0.207124049935
0.20653432557
0.205959029053
0.205403483873
0.204872750514
0.204366933709
0.203887697512
0.203438354418
0.203024682683
0.20265119214
0.202321096448
0.202032882292
0.201787019521
0.201586659459
0.201434600387
0.201331715651
0.201198395947
7.71492888936e-105
7.71492888936e-105
7.71492888937e-105
7.71492888937e-105
7.71492888937e-105
7.71492888937e-105
7.71492888938e-105
7.71492888938e-105
7.71492888938e-105
7.71492888938e-105
7.71492888938e-105
7.71492888939e-105
7.71492888939e-105
7.7149288897e-105
7.71492890734e-105
7.71492991604e-105
7.71498604454e-105
7.71811411852e-105
7.80341818802e-105
2.42451690624e-38
8.78531356619e-06
0.465268864545
0.611331029041
0.40705871054
0.300616709061
0.255029343822
0.237214065382
0.230791217451
0.228450374109
0.227205301078
0.226218018339
0.225302407228
0.224421077189
0.223570054645
0.222740994204
0.221931545359
0.22113788497
0.220357321241
0.219591024624
0.21883629889
0.218088871784
0.217347472178
0.216614050122
0.215885628837
0.215160821276
0.214439100731
0.213719363878
0.213002109887
0.212290167896
0.211584063289
0.210883320655
0.210190041218
0.20950873046
0.208841438593
0.208244684111
0.207613171461
0.207005337914
0.206424158312
0.205872603963
0.205353009888
0.204867512795
0.204420751913
0.204016583204
0.203658258182
0.203347538094
0.203084437578
0.202870560246
0.202707467706
0.20259597602
0.20245930512
7.7149288887e-105
7.7149288887e-105
7.71492888871e-105
7.71492888871e-105
7.71492888871e-105
7.71492888871e-105
7.71492888871e-105
7.71492888872e-105
7.71492888872e-105
7.71492888872e-105
7.71492888872e-105
7.71492888872e-105
7.71492888874e-105
7.7149288896e-105
7.71492893866e-105
7.71493174649e-105
7.7150868192e-105
7.72377347592e-105
7.88201606623e-105
7.95400405543e-38
0.00119969840888
0.679151034021
0.556164367486
0.378026539117
0.290966723581
0.254703029699
0.240590573885
0.235442211219
0.23331346476
0.231982665946
0.230840796642
0.229763889516
0.228724808289
0.227713254634
0.226731224665
0.225775086193
0.224838051994
0.223921653409
0.223024167036
0.22214179852
0.221272153861
0.220411542467
0.219561428285
0.218721789867
0.217886739188
0.217118573481
0.216297192293
0.215483546265
0.214680784786
0.213887090482
0.213101267752
0.212328294972
0.211573597644
0.210835931627
0.210118431733
0.209423967609
0.20875467925
0.208115756377
0.207511857576
0.207006508188
0.206479464726
0.205996535357
0.205559607318
0.20517149624
0.20483524494
0.204552583327
0.204323385874
0.204148269968
0.204027633224
0.20388762807
7.71492888815e-105
7.71492888815e-105
7.71492888815e-105
7.71492888815e-105
7.71492888815e-105
7.71492888816e-105
7.71492888816e-105
7.71492888816e-105
7.71492888816e-105
7.71492888816e-105
7.71492888817e-105
7.71492888817e-105
7.71492888821e-105
7.71492889074e-105
7.71492903395e-105
7.71493714581e-105
7.71537894855e-105
7.73967029302e-105
8.07475820138e-105
1.74114939745e-16
0.0954278051611
0.738595700675
0.505675920068
0.354869724131
0.284710544896
0.255768715255
0.244701833962
0.240581873157
0.238563996591
0.237121649273
0.235814581942
0.234561041964
0.233353172145
0.232178092102
0.231036867759
0.229927494518
0.228845000236
0.227782694976
0.22679843894
0.225778980703
0.224778590173
0.223792895189
0.222818606714
0.221859966995
0.220913306121
0.21997506246
0.219050369604
0.218138829186
0.217240408344
0.216352798318
0.215537515197
0.214680611478
0.213842829052
0.213028997376
0.212240757913
0.211481158063
0.210752843452
0.21005812923
0.20940123807
0.208786738664
0.208217560276
0.207695818188
0.20722378348
0.206866003879
0.206502327249
0.206197245249
0.205950048444
0.205761211775
0.205630890679
0.205487125232
7.71492888768e-105
7.71492888768e-105
7.71492888768e-105
7.71492888768e-105
7.71492888768e-105
7.71492888768e-105
7.71492888769e-105
7.71492888769e-105
7.71492888769e-105
7.71492888769e-105
7.71492888769e-105
7.7149288877e-105
7.71492888781e-105
7.71492889386e-105
7.71492923261e-105
7.71494813055e-105
7.71596240488e-105
7.76986207742e-105
8.401944757e-105
6.29455288157e-08
0.257431964569
0.681330322985
0.462172932503
0.337092742206
0.281178100449
0.258521440726
0.249721670157
0.2462561083
0.244230046986
0.242624566453
0.241129977267
0.239694051816
0.238301703035
0.237010613641
0.235699036773
0.234418770058
0.233174941581
0.231961676273
0.230773375328
0.229609203506
0.228472129855
0.227351972198
0.226250540971
0.225224917629
0.224159079025
0.223109856604
0.222075769572
0.221055302101
0.220054741722
0.219072936683
0.218110975157
0.217167958573
0.216245401939
0.215415271463
0.214552056772
0.213720927242
0.212927438899
0.212175149701
0.211465170049
0.21080159858
0.210187486596
0.209624690333
0.209116963275
0.208666681076
0.208277421809
0.207947931037
0.207742655235
0.207539931738
0.207402342632
0.207259319621
7.71492888727e-105
7.71492888727e-105
7.71492888727e-105
7.71492888727e-105
7.71492888728e-105
7.71492888728e-105
7.71492888728e-105
7.71492888728e-105
7.71492888728e-105
7.71492888728e-105
7.71492888729e-105
7.71492888729e-105
7.71492888768e-105
7.71492890925e-105
7.71493012605e-105
7.714996855e-105
7.71866415577e-105
7.8124016787e-105
2.84095352478e-38
1.20391438477e-05
0.47033964531
0.619440983114
0.425225345924
0.324108018333
0.28022771355
0.26241121739
0.255481180495
0.252316321291
0.250258116425
0.248457554746
0.246814235975
0.245175475185
0.243594023624
0.242057534153
0.240567803874
0.239117712163
0.237707273516
0.236333075964
0.235048232907
0.233734348178
0.232445079142
0.231186937327
0.229949398192
0.228737190237
0.227549031732
0.226380817755
0.225290070382
0.224162787374
0.223057329739
0.221972422378
0.220915758689
0.219885012721
0.218882503
0.217907167797
0.217029768203
0.216130295481
0.215273376216
0.214459797188
0.213691091723
0.21297342104
0.212313392033
0.211711460933
0.211168622091
0.210687196627
0.210269790349
0.20991918488
0.209636038859
0.209418800101
0.209333483833
0.209123382577
7.71492888692e-105
7.71492888692e-105
7.71492888692e-105
7.71492888692e-105
7.71492888693e-105
7.71492888693e-105
7.71492888693e-105
7.71492888693e-105
7.71492888693e-105
7.71492888693e-105
7.71492888693e-105
7.71492888696e-105
7.71492888827e-105
7.7149289621e-105
7.71493311182e-105
7.71515787744e-105
7.72744974571e-105
7.93256341508e-105
1.70735928395e-23
0.00991673135914
0.707514429104
0.559398550415
0.395304118596
0.315183895853
0.281154591665
0.267321523377
0.261727679898
0.258841489618
0.256634499963
0.254628382924
0.252711000248
0.250866419508
0.249078408704
0.247350100028
0.245727174263
0.244099802143
0.242517411009
0.240973563455
0.239471926402
0.238006046143
0.236632864532
0.235223846096
0.233850614553
0.232506604022
0.231185491315
0.229891074224
0.228623536566
0.227443490628
0.226226923213
0.225043044105
0.22388977146
0.222766872986
0.22167384694
0.220620285572
0.219605726977
0.218696208973
0.217770456109
0.216895384697
0.216071153026
0.215303072659
0.214596141224
0.213949669501
0.213368586443
0.212855497449
0.212412302566
0.212039548841
0.211737114863
0.211504485696
0.211408978655
0.211197035279
7.71492888661e-105
7.71492888661e-105
7.71492888662e-105
7.71492888662e-105
7.71492888662e-105
7.71492888662e-105
7.71492888662e-105
7.71492888662e-105
7.71492888662e-105
7.71492888663e-105
7.71492888663e-105
7.7149288867e-105
7.71492889095e-105
7.71492912741e-105
7.71494225641e-105
7.71564390532e-105
7.75306062183e-105
8.21942844285e-105
6.6475214572e-11
0.15405170904
0.723536719884
0.505991316012
0.371825433129
0.309793377856
0.283686163124
0.273085560735
0.26842495437
0.265587240675
0.263206573828
0.260972784673
0.258832803513
0.256824674797
0.254831852143
0.252900724942
0.251035212861
0.249221117508
0.247519421949
0.245806341037
0.244141334761
0.242512969799
0.240929105672
0.239375249256
0.237924896434
0.23644371301
0.234991078232
0.233573729374
0.232188352592
0.23082933679
0.229565203908
0.228274069117
0.227019433591
0.225801415767
0.224619819876
0.223481173879
0.222388586579
0.221408607406
0.220413830277
0.219476222051
0.21859773258
0.217779070274
0.217021868246
0.216331512321
0.215713002399
0.21516644585
0.214694063707
0.214295324476
0.213970556697
0.213792172637
0.21362286093
0.213470531124
7.71492888634e-105
7.71492888634e-105
7.71492888635e-105
7.71492888635e-105
7.71492888635e-105
7.71492888635e-105
7.71492888635e-105
7.71492888635e-105
7.71492888635e-105
7.71492888635e-105
7.71492888636e-105
7.71492888664e-105
7.71492890231e-105
7.71492977577e-105
7.71497739812e-105
7.7175522079e-105
7.79780439355e-105
1.58698594573e-38
2.79267565446e-06
0.375168840033
0.65468170794
0.460856799601
0.354876678646
0.307651545114
0.287872670621
0.279599001874
0.275512984469
0.27259858038
0.270001615439
0.267591523122
0.265216758717
0.262933111387
0.260720825142
0.258644168093
0.256572787717
0.254566304894
0.252624268091
0.250735526175
0.248959917599
0.247174684913
0.245436244092
0.243735792828
0.242078780378
0.240525130288
0.238938847823
0.23739678086
0.235891460707
0.234415114603
0.233049662958
0.231649624624
0.230294038922
0.228982316927
0.227712928195
0.226487121297
0.225314587811
0.224262699065
0.223199046752
0.222197329185
0.221257049446
0.220382045418
0.219580444632
0.218850256759
0.218194648038
0.217613754633
0.217178672574
0.216755314677
0.216413821474
0.216153338203
0.215973779892
0.215818923737
7.7149288861e-105
7.71492888611e-105
7.71492888611e-105
7.71492888611e-105
7.71492888611e-105
7.71492888611e-105
7.71492888611e-105
7.71492888611e-105
7.71492888611e-105
7.71492888612e-105
7.71492888614e-105
7.71492888727e-105
7.71492895048e-105
7.71493246376e-105
7.71512132625e-105
7.72536352737e-105
7.90471508191e-105
8.25735446365e-25
0.00151067736984
0.647247145982
0.586132064024
0.42424282532
0.343536551181
0.308227537588
0.293376387889
0.286759226739
0.282894079787
0.279815682613
0.277029408039
0.274313413266
0.271707186907
0.269247483868
0.26682184865
0.264473114665
0.262207091973
0.260069267607
0.257935021279
0.255869835499
0.253856850863
0.251968329304
0.250066653033
0.248217559016
0.246417923948
0.244726573838
0.243008499745
0.241339565991
0.239713165246
0.238126275014
0.236646804443
0.235146395166
0.233693552734
0.232283444666
0.230927240664
0.229621532541
0.228439412911
0.227245825944
0.226112778507
0.225048282996
0.224051792644
0.223126528415
0.222275643226
0.221499734206
0.220871582658
0.220255975668
0.219725140356
0.219279235567
0.218918300043
0.218642731186
0.21845234448
0.218294390979
7.71492888589e-105
7.71492888589e-105
7.71492888589e-105
7.71492888589e-105
7.7149288859e-105
7.7149288859e-105
7.7149288859e-105
7.7149288859e-105
7.7149288859e-105
7.7149288859e-105
7.71492888599e-105
7.71492889083e-105
7.71492915572e-105
7.71494362778e-105
7.71570558991e-105
7.75554317669e-105
8.24671981993e-105
9.2687015428e-11
0.150321837303
0.730931031775
0.525415431246
0.396922326006
0.336843213787
0.310902975071
0.299708787052
0.294252179208
0.290501626671
0.287218104505
0.284122181515
0.281211927685
0.278360757834
0.275620392568
0.273033050217
0.270476329472
0.268003598892
0.265676866991
0.263357473945
0.26111536372
0.258931835482
0.256880774852
0.25482283025
0.252816694663
0.250867971355
0.249034402508
0.247185451619
0.245389356104
0.243637593496
0.2419376745
0.240352009367
0.238744610655
0.237193996671
0.235695948723
0.234251190191
0.232932430874
0.231605047603
0.230343265973
0.229145394779
0.228017752947
0.226964896071
0.22598739428
0.225162874037
0.224345495663
0.223613484015
0.222967360432
0.222408692669
0.221937780319
0.221556495857
0.221265045845
0.221063111568
0.220901163063
7.7149288857e-105
7.7149288857e-105
7.7149288857e-105
7.7149288857e-105
7.7149288857e-105
7.71492888571e-105
7.71492888571e-105
7.71492888571e-105
7.71492888571e-105
7.71492888572e-105
7.71492888615e-105
7.71492890968e-105
7.71493019726e-105
7.71499889299e-105
7.71865132554e-105
7.81477602906e-105
2.49819828917e-38
7.22560912983e-06
0.410058985583
0.654965374178
0.474986677715
0.378354709326
0.334548360564
0.315547586437
0.306950180977
0.302031332329
0.298185635307
0.294664690035
0.291368664199
0.288150275577
0.285111831882
0.282130551797
0.279255660474
0.276548881903
0.273873795487
0.271293632471
0.268854777636
0.266434467279
0.264083203841
0.261868133292
0.25965520976
0.25750529517
0.255408143865
0.253443246064
0.251458378548
0.249533745833
0.247661406297
0.245913620599
0.244146472409
0.242437912488
0.240789816341
0.239198954733
0.237737657101
0.236270556965
0.23487149664
0.233539934205
0.23227951068
0.231092503609
0.230059053176
0.229030674625
0.228085303758
0.227228525527
0.226460344088
0.225783121063
0.225198142395
0.224706347892
0.224308064144
0.224003012541
0.223790672632
0.223625825659
7.71492888553e-105
7.71492888553e-105
7.71492888553e-105
7.71492888553e-105
7.71492888553e-105
7.71492888553e-105
7.71492888553e-105
7.71492888554e-105
7.71492888554e-105
7.71492888558e-105
7.71492888781e-105
7.7149290089e-105
7.71493557217e-105
7.71527968191e-105
7.73338018556e-105
8.0086482891e-105
4.75944258473e-23
0.0300801281812
0.72026833894
0.580210319482
0.43717813603
0.366801213923
0.335521230493
0.321593773058
0.31461474125
0.309962561076
0.305988981072
0.302205512485
0.298648327054
0.295176335933
0.29184460065
0.288691018426
0.285600373477
0.282681168465
0.279799382282
0.277021005223
0.274394359411
0.271797753461
0.269283836498
0.266910868705
0.264538650969
0.262241410776
0.260080298656
0.257904818377
0.255798027192
0.253749675607
0.251831563767
0.249902109394
0.248034175322
0.246222512596
0.244474350075
0.242865569093
0.241247406978
0.239701786832
0.238229166328
0.23682480849
0.235579818246
0.234334714779
0.2331745269
0.232098058378
0.231113314294
0.230219019394
0.229416424652
0.228706713388
0.228174253457
0.227659171652
0.227242779781
0.226922911654
0.22669911001
0.226530446131
7.71492888537e-105
7.71492888537e-105
7.71492888537e-105
7.71492888538e-105
7.71492888538e-105
7.71492888538e-105
7.71492888538e-105
7.71492888538e-105
7.71492888538e-105
7.71492888559e-105
7.71492889677e-105
7.71492950691e-105
7.71496239121e-105
7.71669280764e-105
7.78684681731e-105
5.60856146985e-39
2.9708015975e-07
0.268691170437
0.702038429443
0.517653892909
0.410869558023
0.361120645952
0.338928287139
0.328539138472
0.322617011771
0.317950659705
0.313694903115
0.309713947037
0.305841511216
0.302190652924
0.298617279251
0.295246520361
0.291938091007
0.288819060276
0.285741540491
0.282776247258
0.279975240122
0.277196879038
0.274512459245
0.271976003366
0.26945612099
0.267014431506
0.264713568785
0.262411502348
0.260179348269
0.258084711253
0.255981144039
0.25394649114
0.251975763145
0.250147085315
0.248308339447
0.246541183467
0.244843928334
0.243216092939
0.241750416721
0.240281838396
0.238896139323
0.237595515597
0.236383681587
0.235261623262
0.23431365089
0.233380435698
0.232544721644
0.231808142465
0.231171539225
0.230636250807
0.230202161021
0.22986827277
0.229633911373
0.229462619933
7.71492888523e-105
7.71492888523e-105
7.71492888523e-105
7.71492888523e-105
7.71492888523e-105
7.71492888524e-105
7.71492888524e-105
7.71492888524e-105
7.71492888527e-105
7.7149288867e-105
7.71492896385e-105
7.71493310938e-105
7.71514907311e-105
7.72644112468e-105
7.91983450643e-105
1.61470437229e-24
0.000996265773068
0.602016807675
0.618416294109
0.470382700486
0.394792051512
0.360233328615
0.344446800811
0.336261824595
0.330702224976
0.325877715572
0.321413665195
0.317157367361
0.313029543793
0.30913661395
0.305339390278
0.301752074834
0.298234492404
0.294920705641
0.291653015284
0.288574075257
0.285534420087
0.282596826487
0.279820045154
0.277066668719
0.274399457086
0.271885195908
0.269375823095
0.266939493085
0.264659924324
0.26237874353
0.260170410238
0.258032132272
0.256039752682
0.254042505992
0.252119758666
0.250270819155
0.24857875783
0.246880679795
0.245265734143
0.24373795106
0.242295038144
0.241028286888
0.239766355713
0.238601991439
0.237534255037
0.236565469315
0.235698268703
0.23493320663
0.234270252412
0.233798049554
0.233343349662
0.232994818547
0.232749166253
0.232574167495
7.7149288851e-105
7.7149288851e-105
7.7149288851e-105
7.7149288851e-105
7.71492888511e-105
7.71492888511e-105
7.71492888511e-105
7.71492888511e-105
7.71492888528e-105
7.7149288943e-105
7.7149293685e-105
7.71495418884e-105
7.71620998657e-105
7.7779940304e-105
8.48151104355e-105
3.58711813376e-08
0.205992327873
0.726042661945
0.546686553295
0.43806780347
0.386282762465
0.362627933572
0.351105619079
0.344200725127
0.338764318956
0.33372888621
0.329010515544
0.324502886711
0.320127149504
0.315992248533
0.311964677713
0.308169278685
0.304454011529
0.300950274557
0.297506651093
0.294256034855
0.291048903001
0.288021524416
0.285026641679
0.282130105132
0.279396354704
0.276678485969
0.274045591032
0.27157102654
0.269097078818
0.266701586732
0.264460159647
0.262216939877
0.260054095963
0.25796965359
0.256046908624
0.254119800627
0.252276301508
0.250517305787
0.248842250071
0.247342443309
0.245845815087
0.244444990905
0.243141224289
0.241936947416
0.240832300566
0.239921780513
0.239021910715
0.238230480128
0.237546393138
0.236970567408
0.236502387226
0.236140258713
0.235883084541
0.235703740087
7.71492888498e-105
7.71492888498e-105
7.71492888498e-105
7.71492888499e-105
7.71492888499e-105
7.71492888499e-105
7.71492888499e-105
7.71492888502e-105
7.7149288865e-105
7.71492896456e-105
7.71493307656e-105
7.71514335503e-105
7.72589995522e-105
7.91287722152e-105
7.81379295343e-38
0.000373857399077
0.563822012374
0.636681029132
0.493282575411
0.418776731981
0.38410711023
0.367585490125
0.358608298694
0.352230916471
0.346672007359
0.341394532423
0.336425829036
0.331683076638
0.327074700324
0.32272535755
0.318486185152
0.31448610251
0.310643074088
0.306875483146
0.30333531314
0.299850018092
0.296487309433
0.293313892475
0.290176330426
0.287221654934
0.28428544598
0.281439047179
0.278769649782
0.276104469891
0.273524476857
0.271109157222
0.268688168484
0.266354236018
0.264191435182
0.262019925187
0.259934345197
0.257931723733
0.256104248167
0.25427878288
0.252546545988
0.25090859771
0.249364446532
0.248011327296
0.246665138201
0.245425961462
0.244292883345
0.243261790801
0.242337755096
0.241520281675
0.240906463967
0.240310578623
0.239827064835
0.239452116242
0.239184218265
0.239000642755
7.71492888487e-105
7.71492888487e-105
7.71492888488e-105
7.71492888488e-105
7.71492888488e-105
7.71492888488e-105
7.71492888488e-105
7.7149288851e-105
7.71492889655e-105
7.71492949657e-105
7.71496088588e-105
7.71656176568e-105
7.7866220873e-105
3.1218373434e-39
8.94682696561e-08
0.22128933215
0.728050710057
0.560019724394
0.4581635295
0.409035331448
0.38587070374
0.373995751881
0.366340204574
0.360090820767
0.354326844078
0.348811841531
0.34361236433
0.338640758388
0.333822576406
0.329269629903
0.324903792116
0.320653052373
0.316635350071
0.312705763274
0.308993989243
0.305343454818
0.301906987215
0.298513278085
0.295321013431
0.292160632268
0.289105196192
0.286231429311
0.283367744227
0.280682239616
0.278001931365
0.27540958101
0.27299527613
0.27057532632
0.268245104596
0.266000026742
0.263938165669
0.261869762607
0.259893986319
0.258009941179
0.256315596733
0.254622140796
0.253030438089
0.25154692329
0.250164812715
0.248889246613
0.247820385194
0.246758332121
0.245806277232
0.244966641901
0.244244188012
0.243638689431
0.243145019605
0.24275580816
0.242470728253
0.242274573655
7.71492888477e-105