/*--------------------------------*- C++ -*----------------------------------*\
| =========                 |                                                 |
| \\      /  F ield         | foam-extend: Open Source CFD                    |
|  \\    /   O peration     | Version:     4.1                                |
|   \\  /    A nd           | Web:         http://www.foam-extend.org         |
|    \\/     M anipulation  |                                                 |
\*---------------------------------------------------------------------------*/
FoamFile
{
    version     2.0;
    format      ascii;
    class       volScalarField;
    location    "0.0009";
    object      N2;
}
// * * * * * * * * * * * * * * * * * * * * * * * * * * * * * * * * * * * * * //

dimensions      [0 0 0 0 0 0 0];

internalField   nonuniform List<scalar> 
8400
(
0.767082
0.767082
0.767082
0.767082
0.767082
0.767082
0.767082
0.767082
0.767082
0.767082
0.767082
0.767082
0.767082
0.767082
0.767082
0.767082
0.767082
0.767082
0.767082
0.767082
0.767082
0.767082
0.767082
0.757103381495
0.108736325682
5.76589174597e-05
9.80104471452e-06
3.9444977335e-06
2.60694938581e-06
2.20647266858e-06
2.07935238793e-06
2.03587066704e-06
2.01666038286e-06
2.00372782083e-06
1.99309461934e-06
1.98356704254e-06
1.9747309554e-06
1.96636428816e-06
1.9583206854e-06
1.95047761808e-06
1.94286425429e-06
1.93527708666e-06
1.92761276169e-06
1.91980357566e-06
1.91178427239e-06
1.90349748321e-06
1.89499946949e-06
1.88779969001e-06
1.87859292588e-06
1.86901636881e-06
1.85904589502e-06
1.84883260279e-06
1.8382940575e-06
1.82744026403e-06
1.81633042151e-06
1.80515358613e-06
1.79392288771e-06
1.7827058465e-06
1.77161658668e-06
1.76099615179e-06
1.75076698163e-06
1.74105699739e-06
1.73200318893e-06
1.72382281926e-06
1.71657514157e-06
1.71033952767e-06
1.7052079481e-06
1.70125702689e-06
1.69853519435e-06
1.69337678795e-06
0.767082
0.767082
0.767082
0.767082
0.767082
0.767082
0.767082
0.767082
0.767082
0.767082
0.767082
0.767082
0.767082
0.767082
0.767082
0.767082
0.767082
0.767082
0.767082
0.767082
0.767082
0.767082
0.766405549971
0.612362554091
0.000567368983255
2.44739283941e-05
6.10159979994e-06
3.05385585383e-06
2.2754005798e-06
2.04098652814e-06
1.97115992618e-06
1.94882205059e-06
1.93908709376e-06
1.93162731842e-06
1.92467169207e-06
1.91773545897e-06
1.91072247994e-06
1.90192362645e-06
1.89463631321e-06
1.88732900999e-06
1.87981604826e-06
1.87207156486e-06
1.864065212e-06
1.85580957116e-06
1.84735818717e-06
1.83856343659e-06
1.82940393156e-06
1.81986661043e-06
1.81008839239e-06
1.79993905664e-06
1.7894253678e-06
1.7786132807e-06
1.76770844838e-06
1.75656301902e-06
1.74524469241e-06
1.73393388271e-06
1.72268681781e-06
1.71154295064e-06
1.70062872101e-06
1.69025596587e-06
1.68032948253e-06
1.67096949969e-06
1.66229718302e-06
1.65453798484e-06
1.64767446329e-06
1.64179757882e-06
1.63698423252e-06
1.63329540288e-06
1.63076688658e-06
1.62658550536e-06
0.767082
0.767082
0.767082
0.767082
0.767082
0.767082
0.767082
0.767082
0.767082
0.767082
0.767082
0.767082
0.767082
0.767082
0.767082
0.767082
0.767082
0.767082
0.767082
0.767082
0.767082
0.767082
0.754809716069
0.285992892451
9.47829301038e-05
1.20747644831e-05
4.17979480438e-06
2.55349644048e-06
2.09577058448e-06
1.96200113774e-06
1.92545949661e-06
1.91288027182e-06
1.90720259494e-06
1.90240350384e-06
1.89759509249e-06
1.89096625276e-06
1.88578799997e-06
1.8802778695e-06
1.87444074448e-06
1.86826257159e-06
1.8617254254e-06
1.85493044416e-06
1.847764515e-06
1.84018532602e-06
1.83217666988e-06
1.82373051287e-06
1.8149705524e-06
1.8057714267e-06
1.79614182858e-06
1.78610103075e-06
1.77588792595e-06
1.76535471049e-06
1.7545357847e-06
1.74353203086e-06
1.73250713711e-06
1.7214245266e-06
1.71037965405e-06
1.69963089686e-06
1.68920870482e-06
1.67914330964e-06
1.66954905376e-06
1.66063424377e-06
1.65243233374e-06
1.64501324415e-06
1.63846889398e-06
1.63288018471e-06
1.62832685663e-06
1.62490732967e-06
1.62256657675e-06
1.6190542927e-06
0.767082
0.767082
0.767082
0.767082
0.767082
0.767082
0.767082
0.767082
0.767082
0.767082
0.767082
0.767082
0.767082
0.767082
0.767082
0.767082
0.767082
0.767082
0.767082
0.767082
0.767082
0.767076915469
0.723504690675
0.00454894780541
3.66369616937e-05
7.41777990798e-06
3.30418139577e-06
2.32148819138e-06
2.03387776378e-06
1.9494415487e-06
1.92615376398e-06
1.91801078507e-06
1.91263766868e-06
1.90767670955e-06
1.90265704739e-06
1.89577405964e-06
1.89040679255e-06
1.88477112454e-06
1.87882054309e-06
1.87253302728e-06
1.86588146127e-06
1.85886654942e-06
1.85156047507e-06
1.84382413147e-06
1.835641993e-06
1.82700560952e-06
1.81797934938e-06
1.80857837457e-06
1.79874923262e-06
1.78851586769e-06
1.77802669911e-06
1.76734514601e-06
1.75640379366e-06
1.74527504975e-06
1.73416793195e-06
1.72307528499e-06
1.71206345572e-06
1.70128297565e-06
1.6909717579e-06
1.68105077277e-06
1.67162560255e-06
1.66282110904e-06
1.65481738469e-06
1.64760010824e-06
1.64125122456e-06
1.63584028846e-06
1.63142539169e-06
1.62804955621e-06
1.62573814229e-06
1.62254945879e-06
0.767082
0.767082
0.767082
0.767082
0.767082
0.767082
0.767082
0.767082
0.767082
0.767082
0.767082
0.767082
0.767082
0.767082
0.767082
0.767082
0.767082
0.767082
0.767082
0.767082
0.767082
0.763138888611
0.52940163569
0.000284682897056
1.95649077655e-05
5.42129068674e-06
2.89746956841e-06
2.23726332638e-06
2.03947871603e-06
1.98270566839e-06
1.96342357614e-06
1.95445403272e-06
1.94719968582e-06
1.94027946963e-06
1.93337932572e-06
1.92653205749e-06
1.91789748278e-06
1.9107292583e-06
1.90330535757e-06
1.89564139734e-06
1.88783679391e-06
1.87970038813e-06
1.87119981287e-06
1.86230752624e-06
1.85311047856e-06
1.84357008418e-06
1.83361379307e-06
1.82325080062e-06
1.81258876797e-06
1.80164130266e-06
1.79037927217e-06
1.7788555289e-06
1.76735599713e-06
1.75573730622e-06
1.74406752143e-06
1.73251703895e-06
1.72120038203e-06
1.7101275896e-06
1.69939841942e-06
1.68928990098e-06
1.67975964427e-06
1.67086923821e-06
1.66271735835e-06
1.65542629317e-06
1.64908800549e-06
1.64369732994e-06
1.63930389585e-06
1.63594445218e-06
1.63364185781e-06
1.6305427955e-06
0.767082
0.767082
0.767082
0.767082
0.767082
0.767082
0.767082
0.767082
0.767082
0.767082
0.767082
0.767082
0.767082
0.767082
0.767082
0.767082
0.767082
0.767082
0.767082
0.767082
0.767082
0.75487284894
0.292871210367
9.86839783761e-05
1.26122852662e-05
4.41038773856e-06
2.71198518143e-06
2.23473644433e-06
2.09031126883e-06
2.04677509105e-06
2.02780388865e-06
2.01602748531e-06
2.00561482686e-06
1.99561661726e-06
1.98575856115e-06
1.97595720928e-06
1.96637237257e-06
1.95674561453e-06
1.94702664014e-06
1.93547223775e-06
1.92553701552e-06
1.91532576656e-06
1.90482265552e-06
1.89403346829e-06
1.88312166392e-06
1.871865676e-06
1.86026408535e-06
1.84843115955e-06
1.83639614189e-06
1.82408508827e-06
1.81156221745e-06
1.79900120984e-06
1.78630538903e-06
1.77354621059e-06
1.7610148266e-06
1.75018508036e-06
1.73804264231e-06
1.72630688802e-06
1.71508176368e-06
1.70435891999e-06
1.69424676764e-06
1.68496532284e-06
1.67656570636e-06
1.66904158193e-06
1.66245437353e-06
1.6568604959e-06
1.65229985661e-06
1.64883302466e-06
1.64647041157e-06
1.64346726104e-06
0.767082
0.767082
0.767082
0.767082
0.767082
0.767082
0.767082
0.767082
0.767082
0.767082
0.767082
0.767082
0.767082
0.767082
0.767082
0.767082
0.767082
0.767082
0.767082
0.767082
0.767081707499
0.758644982154
0.0553084796348
4.99043175185e-05
9.14520557461e-06
3.86979152299e-06
2.64408962104e-06
2.28416328937e-06
2.17339473508e-06
2.13500607309e-06
2.11394229884e-06
2.09846357487e-06
2.08417356971e-06
2.07028778172e-06
2.05670572747e-06
2.04355061317e-06
2.0304991862e-06
2.01750297986e-06
2.00470894409e-06
1.99186263565e-06
1.97890673785e-06
1.96600533682e-06
1.95299498984e-06
1.9397600125e-06
1.92637006002e-06
1.91282783543e-06
1.89902727852e-06
1.88507734364e-06
1.87109496402e-06
1.85692148307e-06
1.84268161905e-06
1.82851630441e-06
1.81431407214e-06
1.80021186712e-06
1.7863543194e-06
1.77271225491e-06
1.7594676439e-06
1.74682884864e-06
1.73469394311e-06
1.7231596304e-06
1.71245878141e-06
1.70255978297e-06
1.69353540408e-06
1.68546241369e-06
1.67847180127e-06
1.67261478535e-06
1.6678523431e-06
1.6642163794e-06
1.66172252519e-06
1.65870856839e-06
0.767082
0.767082
0.767082
0.767082
0.767082
0.767082
0.767082
0.767082
0.767082
0.767082
0.767082
0.767082
0.767082
0.767082
0.767082
0.767082
0.767082
0.767082
0.767082
0.767082
0.766932350413
0.654491852046
0.00100834778116
2.9909460936e-05
7.21925920089e-06
3.57928193305e-06
2.65238713379e-06
2.37058081398e-06
2.27917889273e-06
2.24411424955e-06
2.21935964205e-06
2.19943723544e-06
2.18063035844e-06
2.16243965166e-06
2.14463196427e-06
2.12736285989e-06
2.1102947922e-06
2.09350986345e-06
2.07692814627e-06
2.06038760306e-06
2.04414107275e-06
2.02789146001e-06
2.01157434602e-06
1.99535033603e-06
1.97898000147e-06
1.96259479729e-06
1.94627839627e-06
1.92981485185e-06
1.91338007229e-06
1.89692085106e-06
1.88042955755e-06
1.86428227373e-06
1.84821058413e-06
1.83237606657e-06
1.81694326364e-06
1.80180012988e-06
1.78716442249e-06
1.77474689556e-06
1.76139134029e-06
1.74883902665e-06
1.73724122241e-06
1.72652217968e-06
1.71677190151e-06
1.70811958352e-06
1.70062859426e-06
1.69428516574e-06
1.68913364189e-06
1.68520594753e-06
1.68251585072e-06
1.67942850374e-06
0.767082
0.767082
0.767082
0.767082
0.767082
0.767082
0.767082
0.767082
0.767082
0.767082
0.767082
0.767082
0.767082
0.767082
0.767082
0.767082
0.767082
0.767082
0.767082
0.767082
0.761155677982
0.496514696033
0.000252706249612
2.0104804697e-05
6.06716108068e-06
3.43938138919e-06
2.72210931134e-06
2.49254396022e-06
2.41343787815e-06
2.37613162209e-06
2.34606143215e-06
2.32045830465e-06
2.29593143701e-06
2.27231753974e-06
2.24941530499e-06
2.22708134465e-06
2.20525184502e-06
2.18385424251e-06
2.16298374756e-06
2.14229768415e-06
2.12205891869e-06
2.10188329609e-06
2.08192596863e-06
2.06203107919e-06
2.0422373862e-06
2.0243857971e-06
2.00475141973e-06
1.98537044573e-06
1.96597865739e-06
1.94686789995e-06
1.92798585594e-06
1.90931917356e-06
1.89109751971e-06
1.87313270095e-06
1.85569231808e-06
1.83873861248e-06
1.82242747408e-06
1.80702780359e-06
1.79235635261e-06
1.7785512869e-06
1.76575178094e-06
1.75396753697e-06
1.74331426618e-06
1.73400744262e-06
1.72591402676e-06
1.71902692906e-06
1.71342071391e-06
1.70915726051e-06
1.70625920235e-06
1.70312963077e-06
0.767082
0.767082
0.767082
0.767082
0.767082
0.767082
0.767082
0.767082
0.767082
0.767082
0.767082
0.767082
0.767082
0.767082
0.767082
0.767082
0.767082
0.767082
0.767082
0.767082
0.754859530982
0.300886131356
0.000110148544406
1.46231624296e-05
5.38300701561e-06
3.40999465652e-06
2.83682580514e-06
2.64671465826e-06
2.57391294337e-06
2.53137240407e-06
2.49629599854e-06
2.46358420545e-06
2.43213626339e-06
2.40217895269e-06
2.37307526511e-06
2.34494689761e-06
2.31753106764e-06
2.290752228e-06
2.2646892929e-06
2.23915730735e-06
2.2141077983e-06
2.18936903391e-06
2.16513821799e-06
2.14118098207e-06
2.11758042337e-06
2.09420040775e-06
2.0711012726e-06
2.04821940024e-06
2.02570186099e-06
2.00353441274e-06
1.98169944141e-06
1.96029531471e-06
1.93935967252e-06
1.91909494175e-06
1.90095802753e-06
1.88207214405e-06
1.86389973229e-06
1.84668422534e-06
1.83046765474e-06
1.81520239621e-06
1.80113429551e-06
1.78822972707e-06
1.77655372838e-06
1.76625585235e-06
1.75741362264e-06
1.7499306278e-06
1.74384942379e-06
1.73920772622e-06
1.73602579072e-06
1.73274995692e-06
0.767082
0.767082
0.767082
0.767082
0.767082
0.767082
0.767082
0.767082
0.767082
0.767082
0.767082
0.767082
0.767082
0.767082
0.767082
0.767082
0.767082
0.767082
0.767082
0.767082
0.759222904894
0.0865795699386
5.99065401165e-05
1.12908728255e-05
4.95847932284e-06
3.46048722348e-06
2.99584787432e-06
2.83231754778e-06
2.75915671288e-06
2.70963576752e-06
2.66618506862e-06
2.62527307024e-06
2.58606596966e-06
2.54843734568e-06
2.51218076589e-06
2.47711553337e-06
2.44325173255e-06
2.41032932388e-06
2.37837132086e-06
2.34731745672e-06
2.31684528352e-06
2.28711078183e-06
2.25789558575e-06
2.2293466348e-06
2.20122080332e-06
2.17549077321e-06
2.1483214149e-06
2.12152761343e-06
2.09547138754e-06
2.06977644286e-06
2.044746018e-06
2.02017947489e-06
1.99653364234e-06
1.9734801128e-06
1.9513975855e-06
1.93004219033e-06
1.90978764118e-06
1.89046286163e-06
1.87241044598e-06
1.85734425975e-06
1.84168737606e-06
1.82753919773e-06
1.81475674937e-06
1.80340403748e-06
1.79362156872e-06
1.78547206631e-06
1.77886065116e-06
1.77380550891e-06
1.77031760364e-06
1.76689353124e-06
0.767082
0.767082
0.767082
0.767082
0.767082
0.767082
0.767082
0.767082
0.767082
0.767082
0.767082
0.767082
0.767082
0.767082
0.767082
0.767082
0.767082
0.767082
0.767082
0.766968876535
0.670003691838
0.00166310915517
3.65996892503e-05
9.20406606934e-06
4.73699986211e-06
3.56636349997e-06
3.18823064666e-06
3.04616097984e-06
2.96933323705e-06
2.91119380414e-06
2.85806911314e-06
2.80752542678e-06
2.75946488567e-06
2.71321641985e-06
2.66876971188e-06
2.62599312479e-06
2.58482059179e-06
2.54487361979e-06
2.50814692727e-06
2.47058954031e-06
2.43417019133e-06
2.39857113422e-06
2.36380398801e-06
2.32999394726e-06
2.29684726975e-06
2.26444628054e-06
2.23281683254e-06
2.20186981055e-06
2.17181945787e-06
2.14232150532e-06
2.11553310434e-06
2.08764416503e-06
2.06061498916e-06
2.03467289078e-06
2.00969445861e-06
1.98594062991e-06
1.96325669882e-06
1.94188809397e-06
1.92176661169e-06
1.90311493026e-06
1.8859946699e-06
1.87031300893e-06
1.85631041429e-06
1.84568582415e-06
1.83493098655e-06
1.82589207165e-06
1.81863009879e-06
1.81310789511e-06
1.80928913999e-06
1.8057035966e-06
0.767082
0.767082
0.767082
0.767082
0.767082
0.767082
0.767082
0.767082
0.767082
0.767082
0.767082
0.767082
0.767082
0.767082
0.767082
0.767082
0.767082
0.767082
0.767082
0.761344883213
0.508499497411
0.000310546944009
2.46032754675e-05
7.8986198074e-06
4.66296963894e-06
3.74739938154e-06
3.42703621746e-06
3.29441658982e-06
3.20916596035e-06
3.1392507815e-06
3.07435909487e-06
3.01279918731e-06
2.95395888047e-06
2.90008597404e-06
2.84610907897e-06
2.79419158877e-06
2.7444604017e-06
2.69655238816e-06
2.65018635483e-06
2.60527188667e-06
2.56198293832e-06
2.5199172498e-06
2.47901704265e-06
2.44125553495e-06
2.4026669384e-06
2.36507896676e-06
2.32839189764e-06
2.29268223109e-06
2.25807858395e-06
2.22441647237e-06
2.19189780249e-06
2.16036044931e-06
2.129757548e-06
2.10260329483e-06
2.07455234561e-06
2.04790972321e-06
2.02263816608e-06
1.99892855486e-06
1.97670936083e-06
1.95616546623e-06
1.93718121551e-06
1.92004039998e-06
1.90458560729e-06
1.8909137709e-06
1.87925181337e-06
1.86938790004e-06
1.86317933303e-06
1.85708445729e-06
1.85291405378e-06
1.84918157971e-06
0.767082
0.767082
0.767082
0.767082
0.767082
0.767082
0.767082
0.767082
0.767082
0.767082
0.767082
0.767082
0.767082
0.767082
0.767082
0.767082
0.767082
0.767082
0.767082
0.75461154295
0.29581308422
0.000123449687995
1.77593205283e-05
7.10830417885e-06
4.72300833381e-06
3.98486003767e-06
3.71165550238e-06
3.57519598505e-06
3.47997472778e-06
3.39550598725e-06
3.31915271304e-06
3.24426473443e-06
3.17317269579e-06
3.10521811182e-06
3.04040799129e-06
2.97830812263e-06
2.91883567727e-06
2.86176241403e-06
2.80909333786e-06
2.75605333086e-06
2.70472519603e-06
2.6554229979e-06
2.60758306964e-06
2.56131382117e-06
2.51651867146e-06
2.47301754082e-06
2.43300388685e-06
2.39218636069e-06
2.35259765513e-06
2.31421104433e-06
2.27740162069e-06
2.24185976919e-06
2.2076269201e-06
2.17488107195e-06
2.14558514491e-06
2.11594240233e-06
2.08800503273e-06
2.0616584928e-06
2.03711765227e-06
2.0142835213e-06
1.99354582289e-06
1.97470744084e-06
1.95780348433e-06
1.94298934096e-06
1.93014504286e-06
1.91934082683e-06
1.91067760817e-06
1.90406501695e-06
1.90136491913e-06
1.89560547847e-06
0.767082
0.767082
0.767082
0.767082
0.767082
0.767082
0.767082
0.767082
0.767082
0.767082
0.767082
0.767082
0.767082
0.767082
0.767082
0.767082
0.767082
0.767082
0.767080093422
0.75365632355
0.0577810226448
6.31022084981e-05
1.37291650641e-05
6.66643940838e-06
4.87970159386e-06
4.28001847793e-06
4.03557873599e-06
3.89658703192e-06
3.78482408843e-06
3.68351658153e-06
3.58824626846e-06
3.49826823968e-06
3.41267382828e-06
3.33152260546e-06
3.25667136506e-06
3.18301705016e-06
3.11260954052e-06
3.04504943509e-06
2.98045167046e-06
2.91838834074e-06
2.86104850427e-06
2.80329874126e-06
2.74787866796e-06
2.69445082116e-06
2.64271828371e-06
2.59275750087e-06
2.54452975567e-06
2.5001759932e-06
2.45515795225e-06
2.41196277671e-06
2.37040415778e-06
2.33041999236e-06
2.2920655652e-06
2.25560430851e-06
2.22084511647e-06
2.18998567441e-06
2.15902677305e-06
2.12992930414e-06
2.10295694892e-06
2.07789701201e-06
2.05516974304e-06
2.03441471266e-06
2.01601491221e-06
1.99978782664e-06
1.98575798467e-06
1.97411037899e-06
1.96466746044e-06
1.95740185215e-06
1.95430406182e-06
1.94828184432e-06
0.767082
0.767082
0.767082
0.767082
0.767082
0.767082
0.767082
0.767082
0.767082
0.767082
0.767082
0.767082
0.767082
0.767082
0.767082
0.767082
0.767082
0.767082
0.766014123284
0.611632762978
0.000882293276228
3.76608568463e-05
1.12820095602e-05
6.48390050496e-06
5.12347254055e-06
4.63241775692e-06
4.4026601432e-06
4.25010981104e-06
4.11935734758e-06
3.99801717987e-06
3.88436952562e-06
3.77986067672e-06
3.67827451628e-06
3.58194934814e-06
3.49079874815e-06
3.40388924684e-06
3.32383818765e-06
3.24478491371e-06
3.16935189337e-06
3.09694489315e-06
3.02773869507e-06
2.96107962327e-06
2.89983435756e-06
2.8384071049e-06
2.7791399733e-06
2.7222494053e-06
2.66751572501e-06
2.61468402225e-06
2.56619353673e-06
2.51742824479e-06
2.47068623221e-06
2.42605608603e-06
2.3833479889e-06
2.34269841513e-06
2.30414023117e-06
2.26999679557e-06
2.23577696013e-06
2.20377597374e-06
2.17425274913e-06
2.14686823215e-06
2.12188692667e-06
2.09918385006e-06
2.0791217959e-06
2.06139481632e-06
2.04617032912e-06
2.0334284636e-06
2.02305222573e-06
2.01722876179e-06
2.01174548874e-06
2.00736802223e-06
0.767082
0.767082
0.767082
0.767082
0.767082
0.767082
0.767082
0.767082
0.767082
0.767082
0.767082
0.767082
0.767082
0.767082
0.767082
0.767082
0.767082
0.767082
0.756180069493
0.390913535822
0.000202170333334
2.51555097776e-05
9.87657959635e-06
6.52142188061e-06
5.46804139804e-06
5.04537943727e-06
4.81650811891e-06
4.64297464197e-06
4.48821593324e-06
4.34761038771e-06
4.21218471039e-06
4.08539662634e-06
3.96527972632e-06
3.85512487412e-06
3.74782547121e-06
3.6460372001e-06
3.54958704339e-06
3.45778636831e-06
3.37312514858e-06
3.28970267964e-06
3.21000898903e-06
3.1335415317e-06
3.06042873396e-06
2.99304016243e-06
2.92556413021e-06
2.86108079494e-06
2.79923206675e-06
2.73965098302e-06
2.68536092922e-06
2.63066242571e-06
2.57849935886e-06
2.52877513454e-06
2.48135924537e-06
2.43620073157e-06
2.39370092219e-06
2.35601410795e-06
2.31836169192e-06
2.28330792324e-06
2.25083095636e-06
2.22080124639e-06
2.19367293932e-06
2.16902867159e-06
2.14720884236e-06
2.12789742047e-06
2.11347809043e-06
2.09961126156e-06
2.08838879765e-06
2.07979233663e-06
2.07381547829e-06
2.06922681225e-06
0.767082
0.767082
0.767082
0.767082
0.767082
0.767082
0.767082
0.767082
0.767082
0.767082
0.767082
0.767082
0.767082
0.767082
0.767082
0.767082
0.767082
0.767081908747
0.759241620143
0.118691081862
8.53655673181e-05
1.84019298988e-05
9.13488411043e-06
6.73898545737e-06
5.90472068496e-06
5.52216450715e-06
5.27692660009e-06
5.07570739566e-06
4.89612683028e-06
4.72563987966e-06
4.56665929777e-06
4.42035258887e-06
4.27999778999e-06
4.1474856651e-06
4.02282498709e-06
3.90777861471e-06
3.79591621067e-06
3.68997932285e-06
3.58892532289e-06
3.49626380418e-06
3.40492092036e-06
3.31781021303e-06
3.23472960884e-06
3.15806079837e-06
3.08177143597e-06
3.00913091584e-06
2.93963565685e-06
2.87307950631e-06
2.81200281683e-06
2.75121402599e-06
2.69329894573e-06
2.63802650452e-06
2.58574443448e-06
2.53620873706e-06
2.49191175424e-06
2.44782523588e-06
2.40648367676e-06
2.36826660587e-06
2.33283316039e-06
2.30024929811e-06
2.2706899133e-06
2.24385674972e-06
2.22236034254e-06
2.20141357405e-06
2.18341397136e-06
2.16842336653e-06
2.15626080221e-06
2.14693250671e-06
2.1404275575e-06
2.13556709713e-06
0.767082
0.767082
0.767082
0.767082
0.767082
0.767082
0.767082
0.767082
0.767082
0.767082
0.767082
0.767082
0.767082
0.767082
0.767082
0.767082
0.767082
0.765886246873
0.615346099852
0.001179191765
4.64018518427e-05
1.47400669328e-05
8.83846446723e-06
7.09807949485e-06
6.41176648507e-06
6.0506114661e-06
5.78423048319e-06
5.55045340293e-06
5.33547437661e-06
5.13924858844e-06
4.95262859728e-06
4.77861542295e-06
4.61886537174e-06
4.4652367568e-06
4.32089577237e-06
4.1882633915e-06
4.05962024264e-06
3.93807171147e-06
3.82287006522e-06
3.71685394679e-06
3.61293901533e-06
3.51408722641e-06
3.42008554336e-06
3.33333534411e-06
3.24774007866e-06
3.16626632536e-06
3.08840531614e-06
3.01429405772e-06
2.94636978026e-06
2.87886310907e-06
2.81485582352e-06
2.75409622555e-06
2.69649982844e-06
2.64465767692e-06
2.59332896967e-06
2.54535179359e-06
2.50041006446e-06
2.45863334256e-06
2.42004414647e-06
2.38479839904e-06
2.3551729562e-06
2.32621434425e-06
2.30043894824e-06
2.27790182044e-06
2.25840757072e-06
2.24216970713e-06
2.22900742693e-06
2.21889535073e-06
2.21181787152e-06
2.2066169614e-06
0.767082
0.767082
0.767082
0.767082
0.767082
0.767082
0.767082
0.767082
0.767082
0.767082
0.767082
0.767082
0.767082
0.767082
0.767082
0.767082
0.767082
0.755039889806
0.356049889314
0.000206393162685
2.95103609153e-05
1.28463129156e-05
8.92519274557e-06
7.60583316713e-06
7.01017111612e-06
6.63574624416e-06
6.3333049238e-06
6.06128955635e-06
5.81445093604e-06
5.58158870144e-06
5.36866289649e-06
5.16647350829e-06
4.9774564129e-06
4.80445252882e-06
4.6386591785e-06
4.48301371288e-06
4.33980591415e-06
4.20153251226e-06
4.07063687475e-06
3.95029410903e-06
3.83312358961e-06
3.72181482353e-06
3.61603165442e-06
3.51894828192e-06
3.42307579085e-06
3.33208805947e-06
3.24562472958e-06
3.16635965118e-06
3.08791091849e-06
3.01347974992e-06
2.94301614438e-06
2.87626295306e-06
2.81593392399e-06
2.75645370027e-06
2.70062024845e-06
2.64830794153e-06
2.59950433173e-06
2.55421441117e-06
2.51526291871e-06
2.47694976178e-06
2.4420877962e-06
2.41089720503e-06
2.38305191546e-06
2.35879971207e-06
2.33789043409e-06
2.32032777427e-06
2.30624165034e-06
2.29539660206e-06
2.28776822285e-06
2.28228454309e-06
0.767082
0.767082
0.767082
0.767082
0.767082
0.767082
0.767082
0.767082
0.767082
0.767082
0.767082
0.767082
0.767082
0.767082
0.767082
0.767082
0.767076511508
0.734552491255
0.0446233028921
8.19028407304e-05
2.15418867926e-05
1.19652800311e-05
9.28108427761e-06
8.23448245281e-06
7.67471118625e-06
7.27379714527e-06
6.93105030287e-06
6.61487135944e-06
6.32798064805e-06
6.05812859642e-06
5.80831500507e-06
5.57979594556e-06
5.36334510146e-06
5.16522219901e-06
4.97573469543e-06
4.79846527774e-06
4.63552055147e-06
4.47915814973e-06
4.33168990199e-06
4.19624365821e-06
4.06429679594e-06
3.93990611473e-06
3.82542216522e-06
3.71328196226e-06
3.60712765698e-06
3.50622099689e-06
3.41384834221e-06
3.3230042417e-06
3.23686031154e-06
3.15500861879e-06
3.07762477848e-06
3.00766344527e-06
2.93869896433e-06
2.87394826532e-06
2.81330410959e-06
2.75643363992e-06
2.706698953e-06
2.65772993863e-06
2.61262516785e-06
2.57134477801e-06
2.53403829004e-06
2.50038111893e-06
2.47062741378e-06
2.44436499467e-06
2.42479243397e-06
2.40593937311e-06
2.39063588885e-06
2.37895318122e-06
2.37071695972e-06
2.36490743274e-06
0.767082
0.767082
0.767082
0.767082
0.767082
0.767082
0.767082
0.767082
0.767082
0.767082
0.767082
0.767082
0.767082
0.767082
0.767082
0.767082
0.759286829683
0.497246387701
0.000495805574262
4.4526843301e-05
1.76030711135e-05
1.17672965394e-05
9.83964470159e-06
8.9584757787e-06
8.40919165136e-06
7.96160629598e-06
7.56257036441e-06
7.2034819165e-06
6.86790923634e-06
6.56374056311e-06
6.27739568464e-06
6.01671615388e-06
5.77003066096e-06
5.54502574607e-06
5.33047680826e-06
5.1303186512e-06
4.94675428126e-06
4.77051218554e-06
4.60513253261e-06
4.45291636027e-06
4.30620061391e-06
4.16758366089e-06
4.04031576548e-06
3.91614342011e-06
3.79896830349e-06
3.69134225948e-06
3.58594316297e-06
3.48636231727e-06
3.39201262072e-06
3.30615772673e-06
3.22173077371e-06
3.14229611033e-06
3.06747501215e-06
2.99706317407e-06
2.934597447e-06
2.87316655465e-06
2.81609653758e-06
2.76343457117e-06
2.71504449107e-06
2.67076359203e-06
2.63356646425e-06
2.59760849351e-06
2.56553847471e-06
2.53761390245e-06
2.51346245518e-06
2.49338160492e-06
2.47706632147e-06
2.46444346071e-06
2.45548098389e-06
2.44929976327e-06
0.767082
0.767082
0.767082
0.767082
0.767082
0.767082
0.767082
0.767082
0.767082
0.767082
0.767082
0.767082
0.767082
0.767082
0.767082
0.767081820353
0.758937624531
0.164053781248
0.000128787345302
2.96366426889e-05
1.58498065e-05
1.20724439312e-05
1.05982786124e-05
9.78773418932e-06
9.19881047109e-06
8.69100634825e-06
8.23829568249e-06
7.82547079077e-06
7.44172982245e-06
7.09464031348e-06
6.76942614736e-06
6.47385918139e-06
6.19511900203e-06
5.94150105222e-06
5.70036438165e-06
5.48041632595e-06
5.27051163649e-06
5.07403382749e-06
4.89402720973e-06
4.72087155101e-06
4.55784896338e-06
4.40853994485e-06
4.26361483794e-06
4.1267159388e-06
4.00170428421e-06
3.87987382701e-06
3.76464322953e-06
3.65597942688e-06
3.5567976358e-06
3.45964361691e-06
3.3682318253e-06
3.28219926049e-06
3.20488412022e-06
3.1289060006e-06
3.05792802375e-06
2.9919538884e-06
2.93070446578e-06
2.87758205717e-06
2.82549968743e-06
2.77819351751e-06
2.73528617223e-06
2.69666573107e-06
2.6625946405e-06
2.63259707338e-06
2.60694023562e-06
2.58847718e-06
2.57085393955e-06
2.55738851669e-06
2.54777709961e-06
2.54120247752e-06
0.767082
0.767082
0.767082
0.767082
0.767082
0.767082
0.767082
0.767082
0.767082
0.767082
0.767082
0.767082
0.767082
0.767082
0.767082
0.762112823863
0.559819663237
0.000999820874774
6.00861476408e-05
2.30384224817e-05
1.52745267825e-05
1.27001299959e-05
1.14785093301e-05
1.06809640103e-05
1.00382237411e-05
9.46221483986e-06
8.94658127455e-06
8.47698306038e-06
8.0417913543e-06
7.64799582248e-06
7.28104522812e-06
6.94855535416e-06
6.63578582065e-06
6.35192755719e-06
6.08329701777e-06
5.83831871433e-06
5.60505557855e-06
5.39185152016e-06
5.18784122374e-06
4.99684326351e-06
4.82189472356e-06
4.65306061365e-06
4.49420989107e-06
4.34901880054e-06
4.20773874102e-06
4.07480206658e-06
3.95319147762e-06
3.83476287415e-06
3.72325315277e-06
3.61815685695e-06
3.52330029846e-06
3.43046724026e-06
3.34343322426e-06
3.26200625132e-06
3.18599035768e-06
3.11899976216e-06
3.05341841178e-06
2.99298988092e-06
2.93755574367e-06
2.88698499288e-06
2.84127235342e-06
2.80387097552e-06
2.76729268675e-06
2.73551208035e-06
2.70806043061e-06
2.68511543029e-06
2.66647583076e-06
2.65196485775e-06
2.64153200746e-06
2.63447967885e-06
0.767082
0.767082
0.767082
0.767082
0.767082
0.767082
0.767082
0.767082
0.767082
0.767082
0.767082
0.767082
0.767082
0.767082
0.767082
0.757552026207
0.202296065726
0.000165420591388
3.74336197471e-05
2.02800756772e-05
1.5542879674e-05
1.35989640033e-05
1.24784780592e-05
1.16366742582e-05
1.09160789482e-05
1.02641809962e-05
9.68092317222e-06
9.15139889625e-06
8.66194478346e-06
8.22064907947e-06
7.8095112564e-06
7.43817545896e-06
7.09561104759e-06
6.77320751991e-06
6.48142882306e-06
6.2049138631e-06
5.94766311295e-06
5.71302513687e-06
5.48901453007e-06
5.28454157938e-06
5.08794246545e-06
4.90346871026e-06
4.73530812371e-06
4.57227020211e-06
4.41911852428e-06
4.27929084703e-06
4.14311585941e-06
4.01515069137e-06
3.89936413852e-06
3.78594948887e-06
3.67963610935e-06
3.57989591374e-06
3.49057634538e-06
3.40325147345e-06
3.32198552969e-06
3.24655501628e-06
3.17673789847e-06
3.11642691074e-06
3.05741735155e-06
3.00379586907e-06
2.9553096491e-06
2.91184716599e-06
2.87322632788e-06
2.83933576149e-06
2.81386704917e-06
2.78942387985e-06
2.76947485642e-06
2.75398858821e-06
2.74286889108e-06
2.7353803738e-06
0.767082
0.767082
0.767082
0.767082
0.767082
0.767082
0.767082
0.767082
0.767082
0.767082
0.767082
0.767082
0.767082
0.767082
0.760772856893
0.544552427295
0.00109069040539
7.0296814969e-05
2.84782450955e-05
1.94272726725e-05
1.62677216725e-05
1.46609162662e-05
1.35430862584e-05
1.26272055736e-05
1.18186046785e-05
1.10867489077e-05
1.04335020117e-05
9.84096896912e-06
9.29564476233e-06
8.80439003854e-06
8.35531854158e-06
7.93742097277e-06
7.55901588086e-06
7.2042129958e-06
6.88233398413e-06
6.57812140425e-06
6.30192467811e-06
6.03914250309e-06
5.80019082048e-06
5.57181806669e-06
5.35828518769e-06
5.16354581926e-06
4.97562479969e-06
4.80453971098e-06
4.63890521108e-06
4.48310344742e-06
4.34194886061e-06
4.20416329855e-06
4.07510604606e-06
3.95367788216e-06
3.84468069351e-06
3.73807316722e-06
3.63838046101e-06
3.54530951778e-06
3.46308200648e-06
3.3826448928e-06
3.30840952198e-06
3.24035379779e-06
3.17794108212e-06
3.12114785768e-06
3.07389978098e-06
3.0276365568e-06
2.98676261591e-06
2.95082662473e-06
2.92019104527e-06
2.89438249439e-06
2.8734314509e-06
2.85694833072e-06
2.84479323606e-06
2.83654055057e-06
0.767082
0.767082
0.767082
0.767082
0.767082
0.767082
0.767082
0.767082
0.767082
0.767082
0.767082
0.767082
0.767082
0.767078831025
0.755678170913
0.151999548316
0.000166258612399
4.33667556396e-05
2.50911272945e-05
1.97268370381e-05
1.73300957955e-05
1.58359644763e-05
1.46551729284e-05
1.36409713083e-05
1.27382261401e-05
1.19222316587e-05
1.11945937237e-05
1.05379985211e-05
9.94255274815e-06
9.39409093917e-06
8.89981686417e-06
8.44765394904e-06
8.02637370776e-06
7.64494928846e-06
7.28650441173e-06
6.96180992747e-06
6.65445163215e-06
6.37522063272e-06
6.10953764431e-06
5.8678773944e-06
5.63653076537e-06
5.42058323431e-06
5.22428880484e-06
5.03467515675e-06
4.85680685746e-06
4.69523885967e-06
4.53855791556e-06
4.39142748637e-06
4.25879951201e-06
4.12929075866e-06
4.00823435293e-06
3.89523614386e-06
3.79406216501e-06
3.69552815742e-06
3.60387144493e-06
3.51892852834e-06
3.4450145958e-06
3.37275702495e-06
3.30695706988e-06
3.24699490478e-06
3.19280836453e-06
3.14409226136e-06
3.10538046428e-06
3.0675259728e-06