/*--------------------------------*- C++ -*----------------------------------*\
| =========                 |                                                 |
| \\      /  F ield         | foam-extend: Open Source CFD                    |
|  \\    /   O peration     | Version:     4.1                                |
|   \\  /    A nd           | Web:         http://www.foam-extend.org         |
|    \\/     M anipulation  |                                                 |
\*---------------------------------------------------------------------------*/
FoamFile
{
    version     2.0;
    format      ascii;
    class       volScalarField;
    location    "0.0009";
    object      N2Plus;
}
// * * * * * * * * * * * * * * * * * * * * * * * * * * * * * * * * * * * * * //

dimensions      [0 0 0 0 0 0 0];

internalField   nonuniform List<scalar> 
8400
(
7.21720708945e-185
7.21720708949e-185
7.21720708953e-185
7.21720708957e-185
7.21720708961e-185
7.21720708965e-185
7.21720708969e-185
7.21720708972e-185
7.21720708976e-185
7.21720708979e-185
7.21720708983e-185
7.21720708986e-185
7.2172070899e-185
7.21720708993e-185
7.21720708996e-185
7.21720709e-185
7.21720709069e-185
7.21720712827e-185
7.21720927684e-185
7.21732772192e-185
7.22397741203e-185
7.35215191037e-185
6.32796457172e-71
7.08118529299e-14
2.32242940595e-05
1.74884456011e-05
1.17730699118e-05
9.37830883482e-06
8.59095745561e-06
8.34823307617e-06
8.26092433298e-06
8.21610412539e-06
8.18546047763e-06
8.15933830083e-06
8.1359518281e-06
8.11449746453e-06
8.09455195924e-06
8.07572565258e-06
8.05772462378e-06
8.04028664191e-06
8.02329385372e-06
8.00644434647e-06
7.98953239927e-06
7.97240200695e-06
7.95490449429e-06
7.93690929342e-06
7.91836971296e-06
7.90249899493e-06
7.88250464859e-06
7.86171153262e-06
7.8401052735e-06
7.81778950271e-06
7.79474981521e-06
7.77105440402e-06
7.74682718057e-06
7.72225179362e-06
7.69750748228e-06
7.67281503252e-06
7.64842764163e-06
7.62481895304e-06
7.60209569371e-06
7.5805550771e-06
7.56050053346e-06
7.54225259221e-06
7.52606999267e-06
7.51220056768e-06
7.50085679377e-06
7.49221412851e-06
7.48640084669e-06
7.48158717467e-06
7.21720707693e-185
7.21720707695e-185
7.21720707696e-185
7.21720707698e-185
7.21720707699e-185
7.21720707701e-185
7.21720707702e-185
7.21720707704e-185
7.21720707705e-185
7.21720707707e-185
7.21720707708e-185
7.21720707709e-185
7.21720707711e-185
7.21720707712e-185
7.21720707714e-185
7.2172070772e-185
7.21720708031e-185
7.21720725716e-185
7.21721734343e-185
7.21776891199e-185
7.24822614237e-185
7.63838681893e-185
1.89496424716e-32
4.72017104684e-07
2.35559442329e-05
1.46069784816e-05
1.03521562284e-05
8.74435068998e-06
8.26361000074e-06
8.12856188496e-06
8.08609764081e-06
8.06761237233e-06
8.05651053398e-06
8.04588242315e-06
8.03506770575e-06
8.0239064609e-06
8.0123579969e-06
7.9969645941e-06
7.98450557901e-06
7.97167693215e-06
7.95827328607e-06
7.94423197934e-06
7.92948644824e-06
7.91399751364e-06
7.89775731738e-06
7.88063418746e-06
7.86258461887e-06
7.84358053636e-06
7.82364150248e-06
7.80275096831e-06
7.78093871067e-06
7.7583058958e-06
7.73509568534e-06
7.71124717861e-06
7.68691453615e-06
7.66230576717e-06
7.63762458408e-06
7.61309727977e-06
7.58899635123e-06
7.56577425932e-06
7.54352032413e-06
7.52251711499e-06
7.50304482755e-06
7.48540374439e-06
7.46980964671e-06
7.45648159935e-06
7.44560459616e-06
7.43732612412e-06
7.4317470011e-06
7.42727205988e-06
7.21720707075e-185
7.21720707075e-185
7.21720707076e-185
7.21720707077e-185
7.21720707078e-185
7.21720707079e-185
7.2172070708e-185
7.21720707081e-185
7.21720707082e-185
7.21720707083e-185
7.21720707084e-185
7.21720707084e-185
7.21720707085e-185
7.21720707086e-185
7.21720707088e-185
7.21720707117e-185
7.21720708769e-185
7.21720803697e-185
7.21726103591e-185
7.22023366698e-185
7.30058679624e-185
2.48035176445e-71
2.57194496511e-17
1.05588477151e-05
1.89772470918e-05
1.23086414946e-05
9.37139476336e-06
8.38421511506e-06
8.10243694628e-06
8.02953080163e-06
8.01073252287e-06
8.00126906877e-06
7.99665338457e-06
7.99168746978e-06
7.98599708294e-06
7.97610723959e-06
7.968821411e-06
7.96064011315e-06
7.95154579131e-06
7.94150971716e-06
7.93049830513e-06
7.91855194793e-06
7.90557493455e-06
7.89152075419e-06
7.87636072155e-06
7.86007598838e-06
7.8426875044e-06
7.82417619854e-06
7.80456851588e-06
7.78391414285e-06
7.76247071135e-06
7.74016624631e-06
7.71710620495e-06
7.69344867663e-06
7.66939141613e-06
7.64510573664e-06
7.62081586478e-06
7.59690527081e-06
7.57355875305e-06
7.550967061e-06
7.52939974676e-06
7.50914468352e-06
7.49044416942e-06
7.47352704632e-06
7.45861252924e-06
7.44589376454e-06
7.43554176388e-06
7.4277246766e-06
7.42244498182e-06
7.41844702004e-06
7.21720706687e-185
7.21720706688e-185
7.21720706689e-185
7.21720706689e-185
7.2172070669e-185
7.21720706691e-185
7.21720706691e-185
7.21720706692e-185
7.21720706693e-185
7.21720706693e-185
7.21720706694e-185
7.21720706695e-185
7.21720706695e-185
7.21720706696e-185
7.21720706699e-185
7.2172070684e-185
7.21720714912e-185
7.21721178989e-185
7.21746828282e-185
7.23190110181e-185
7.4594093108e-185
1.21715496975e-46
1.605956494e-08
2.70729067804e-05
1.59384965549e-05
1.08589036796e-05
8.8617508852e-06
8.24633044707e-06
8.07970907117e-06
8.03176432543e-06
8.01790752345e-06
8.01231412874e-06
8.00720358542e-06
8.00162607691e-06
7.99536751875e-06
7.9849135374e-06
7.97712690831e-06
7.96850139582e-06
7.95896378431e-06
7.94846958051e-06
7.93697000364e-06
7.92443752754e-06
7.91089086989e-06
7.8962222227e-06
7.88040733731e-06
7.86343471653e-06
7.84532092434e-06
7.82609080246e-06
7.80577180626e-06
7.78442513044e-06
7.76224214809e-06
7.73935304123e-06
7.71577741629e-06
7.69168454721e-06
7.66728941955e-06
7.64277975227e-06
7.61837266909e-06
7.59435428241e-06
7.57109626063e-06
7.54868292791e-06
7.52736483279e-06
7.5073984136e-06
7.48903998844e-06
7.47248055078e-06
7.45791769245e-06
7.44551897428e-06
7.43542439126e-06
7.42773806778e-06
7.42253042412e-06
7.41872511741e-06
7.21720706419e-185
7.2172070642e-185
7.2172070642e-185
7.21720706421e-185
7.21720706421e-185
7.21720706422e-185
7.21720706423e-185
7.21720706423e-185
7.21720706424e-185
7.21720706424e-185
7.21720706425e-185
7.21720706425e-185
7.21720706425e-185
7.21720706426e-185
7.21720706434e-185
7.21720706882e-185
7.21720732403e-185
7.21722187515e-185
7.21801808715e-185
7.26168184897e-185
7.78491946131e-185
5.23476162273e-24
1.51143357416e-06
2.2007463655e-05
1.38813034263e-05
1.00519696667e-05
8.65686488582e-06
8.25661395699e-06
8.14526684628e-06
8.1115922862e-06
8.09490542299e-06
8.08482050383e-06
8.0751305991e-06
8.06522288618e-06
8.05490809271e-06
8.04411167143e-06
8.02931213832e-06
8.01724049951e-06
8.00442719932e-06
7.99083517116e-06
7.97651519334e-06
7.96127213178e-06
7.94505164527e-06
7.92780941382e-06
7.90958330545e-06
7.89034130881e-06
7.87004386718e-06
7.84871717045e-06
7.82642758727e-06
7.80324419087e-06
7.77924282298e-06
7.75455518658e-06
7.72952576881e-06
7.7041326857e-06
7.67855087109e-06
7.65301041822e-06
7.62774013814e-06
7.60295599019e-06
7.57890132324e-06
7.55598087047e-06
7.53430512939e-06
7.51406826472e-06
7.49549618602e-06
7.47880037993e-06
7.4641634704e-06
7.45172136065e-06
7.44159796252e-06
7.43388357008e-06
7.42863989833e-06
7.42480771555e-06
7.21720706223e-185
7.21720706223e-185
7.21720706224e-185
7.21720706224e-185
7.21720706225e-185
7.21720706225e-185
7.21720706225e-185
7.21720706226e-185
7.21720706226e-185
7.21720706227e-185
7.21720706227e-185
7.21720706227e-185
7.21720706228e-185
7.21720706229e-185
7.21720706257e-185
7.2172070786e-185
7.2172080019e-185
7.21725968661e-185
7.22016082442e-185
7.30005277106e-185
2.39173570123e-71
2.0136584698e-17
1.0167424151e-05
1.91539162215e-05
1.25201365081e-05
9.60364700508e-06
8.62962241886e-06
8.35734592718e-06
8.27585377889e-06
8.24490452178e-06
8.22259833779e-06
8.20559719797e-06
8.18901335722e-06
8.17248522466e-06
8.15585978911e-06
8.13903386055e-06
8.12209391147e-06
8.10477606659e-06
8.08697752844e-06
8.06518500839e-06
8.04617469918e-06
8.02642701293e-06
8.00588507381e-06
7.98452824574e-06
7.96248030289e-06
7.93954139492e-06
7.91571712421e-06
7.89109804199e-06
7.86574054834e-06
7.83964927365e-06
7.81293700985e-06
7.78573350021e-06
7.75816252254e-06
7.7303929486e-06
7.70281362577e-06
7.67880555026e-06
7.65189410376e-06
7.62566730197e-06
7.60035459031e-06
7.57616627641e-06
7.5533431966e-06
7.53221990552e-06
7.51296770375e-06
7.49569686045e-06
7.48056778614e-06
7.46772694733e-06
7.45727682689e-06
7.44931293355e-06
7.44388661266e-06
7.44004382756e-06
7.21720706073e-185
7.21720706074e-185
7.21720706074e-185
7.21720706074e-185
7.21720706075e-185
7.21720706075e-185
7.21720706075e-185
7.21720706076e-185
7.21720706076e-185
7.21720706076e-185
7.21720706077e-185
7.21720706077e-185
7.21720706077e-185
7.21720706079e-185
7.21720706166e-185
7.21720711199e-185
7.21721002632e-185
7.21737244817e-185
7.22656691636e-185
7.38941612323e-185
7.41744943534e-48
4.09208757201e-11
2.70064179101e-05
1.70572199806e-05
1.16069770862e-05
9.39793706738e-06
8.70931619463e-06
8.5186853156e-06
8.45342849859e-06
8.41805453428e-06
8.38830923002e-06
8.36328434767e-06
8.3387739488e-06
8.31452787986e-06
8.29047845229e-06
8.26669178431e-06
8.24284528077e-06
8.21885298101e-06
8.19464481487e-06
8.170095763e-06
8.14511461131e-06
8.1198006811e-06
8.09398122744e-06
8.06752871215e-06
8.04042663674e-06
8.01265973362e-06
7.98421098378e-06
7.9551941512e-06
7.92574295461e-06
7.89576771821e-06
7.86541746765e-06
7.83487452821e-06
7.80417961226e-06
7.77351618501e-06
7.74308640295e-06
7.71307740811e-06
7.68378555423e-06
7.65553872244e-06
7.62838627952e-06
7.60255658854e-06
7.57830647306e-06
7.55582429232e-06
7.53530932977e-06
7.51694276583e-06
7.50094348612e-06
7.487440654e-06
7.47646306472e-06
7.46808779302e-06
7.46236010743e-06
7.45839048357e-06
7.21720705956e-185
7.21720705956e-185
7.21720705956e-185
7.21720705957e-185
7.21720705957e-185
7.21720705957e-185
7.21720705958e-185
7.21720705958e-185
7.21720705958e-185
7.21720705958e-185
7.21720705959e-185
7.21720705959e-185
7.21720705959e-185
7.21720705964e-185
7.21720706209e-185
7.21720720249e-185
7.21721523578e-185
7.21765659729e-185
7.24218975278e-185
7.57502079208e-185
2.80261926478e-34
2.02220210208e-07
2.4787523317e-05
1.54226369122e-05
1.10169281893e-05
9.35663169571e-06
8.86545714025e-06
8.723337137e-06
8.66112566068e-06
8.62293877818e-06
8.58451720819e-06
8.55072771183e-06
8.51771813698e-06
8.48525343544e-06
8.45314715133e-06
8.42143476901e-06
8.3898621679e-06
8.3583678328e-06
8.32685379368e-06
8.29521073059e-06
8.26360538664e-06
8.2317529061e-06
8.19954831282e-06
8.16697570928e-06
8.1339572678e-06
8.10059830434e-06
8.0669750397e-06
8.03292788044e-06
7.99853730788e-06
7.96386324164e-06
7.92901206773e-06
7.89438923469e-06
7.85985673204e-06
7.82563798066e-06
7.79197880812e-06
7.7589593916e-06
7.72682738661e-06
7.69916906776e-06
7.66949941679e-06
7.64146896962e-06
7.61535197642e-06
7.59120400971e-06
7.56922218962e-06
7.54959312943e-06
7.53246951721e-06
7.51796187469e-06
7.50617181734e-06
7.49717055314e-06
7.49099980233e-06
7.48680102973e-06
7.21720705862e-185
7.21720705862e-185
7.21720705862e-185
7.21720705862e-185
7.21720705863e-185
7.21720705863e-185
7.21720705863e-185
7.21720705863e-185
7.21720705864e-185
7.21720705864e-185
7.21720705864e-185
7.21720705864e-185
7.21720705865e-185
7.21720705874e-185
7.21720706415e-185
7.21720737022e-185
7.2172246672e-185
7.21816396955e-185
7.26885310701e-185
7.86656063043e-185
5.2999252331e-22
2.16410327966e-06
2.18849692381e-05
1.41967673401e-05
1.06613740234e-05
9.43355133524e-06
9.09032110185e-06
8.97279276882e-06
8.90954706982e-06
8.86158868378e-06
8.81262716898e-06
8.76847048378e-06
8.72524612699e-06
8.68301002325e-06
8.64158174612e-06
8.60070176258e-06
8.56027649186e-06
8.52029187533e-06
8.48076152661e-06
8.44136899271e-06
8.40219697887e-06
8.3629788149e-06
8.32367572539e-06
8.28422590595e-06
8.24469868265e-06
8.20860747487e-06
8.16885261006e-06
8.12897038884e-06
8.08896213681e-06
8.04913495971e-06
8.00950363285e-06
7.97011560926e-06
7.93122220939e-06
7.89284267011e-06
7.85520485036e-06
7.81849575553e-06
7.78300293247e-06
7.74909809476e-06
7.71676671235e-06
7.68623588938e-06
7.65773038323e-06
7.63144845074e-06
7.60759972046e-06
7.58648718945e-06
7.56809539178e-06
7.55250383856e-06
7.53982984742e-06
7.53014724911e-06
7.52350353176e-06
7.51908939342e-06
7.21720705785e-185
7.21720705785e-185
7.21720705785e-185
7.21720705785e-185
7.21720705785e-185
7.21720705786e-185
7.21720705786e-185
7.21720705786e-185
7.21720705786e-185
7.21720705787e-185
7.21720705787e-185
7.21720705787e-185
7.21720705788e-185
7.21720705818e-185
7.21720707523e-185
7.21720805076e-185
7.21726233319e-185
7.22028752486e-185
7.30278594471e-185
2.45444886047e-71
2.1025677456e-17
9.74962710449e-06
1.96937036401e-05
1.32800670664e-05
1.05086249146e-05
9.61286489846e-06
9.36276557339e-06
9.26023794002e-06
9.19156542623e-06
9.13109726637e-06
9.07335064476e-06
9.01719325306e-06
8.96239648509e-06
8.90926097516e-06
8.85722548484e-06
8.80627011112e-06
8.75611805185e-06
8.70663367076e-06
8.6579390019e-06
8.60983218908e-06
8.56208784821e-06
8.51458831468e-06
8.46753595448e-06
8.42070978098e-06
8.37409968505e-06
8.32761556409e-06
8.28122956329e-06
8.23495819661e-06
8.18904418363e-06
8.14352765451e-06
8.0983756768e-06
8.05372734721e-06
8.00982043484e-06
7.96695121129e-06
7.92843417541e-06
7.88791844999e-06
7.8488310075e-06
7.81148296161e-06
7.77606438602e-06
7.7427124932e-06
7.71166976502e-06
7.68311404476e-06
7.65723109063e-06
7.63425415619e-06
7.6143475404e-06
7.59750106274e-06
7.58380629862e-06
7.57332659678e-06
7.56610040745e-06
7.5613845307e-06
7.21720705721e-185
7.21720705721e-185
7.21720705721e-185
7.21720705721e-185
7.21720705722e-185
7.21720705722e-185
7.21720705722e-185
7.21720705722e-185
7.21720705722e-185
7.21720705722e-185
7.21720705723e-185
7.21720705723e-185
7.21720705725e-185
7.21720705808e-185
7.21720710552e-185
7.217209821e-185
7.21735979337e-185
7.22576074607e-185
7.37879873981e-185
7.8372055455e-71
2.43002592593e-12
2.50498921073e-05
1.79112463986e-05
1.26085187611e-05
1.04913484999e-05
9.86907491572e-06
9.68165870502e-06
9.58131986174e-06
9.50085276579e-06
9.42701203689e-06
9.35580595278e-06
9.28679508518e-06
9.21971157196e-06
9.15427164688e-06
9.09057970325e-06
9.02842032171e-06
8.96748142232e-06
8.90776483117e-06
8.84921998217e-06
8.79164573586e-06
8.73478917013e-06
8.67854499365e-06
8.62292434054e-06
8.56801602618e-06
8.51349948287e-06
8.46315071294e-06
8.4095655826e-06
8.35639312162e-06
8.3040432857e-06
8.25227345471e-06
8.20118235752e-06
8.15090820285e-06
8.10192206509e-06
8.05405498936e-06
8.00766826183e-06
7.96277347789e-06
7.91964300587e-06
7.87844695691e-06
7.83962342064e-06
7.80690505959e-06
7.77306571848e-06
7.74204446375e-06
7.71396725963e-06
7.68899650484e-06
7.6673403962e-06
7.6491215401e-06
7.63431261442e-06
7.62296460567e-06
7.61510689334e-06
7.61006361405e-06
7.21720705667e-185
7.21720705667e-185
7.21720705667e-185
7.21720705668e-185
7.21720705668e-185
7.21720705668e-185
7.21720705668e-185
7.21720705668e-185
7.21720705668e-185
7.21720705669e-185
7.21720705669e-185
7.21720705669e-185
7.21720705674e-185
7.21720705918e-185
7.21720719768e-185
7.21721504274e-185
7.21764231459e-185
7.24113471708e-185
7.56520158884e-185
1.75896612665e-35
1.36814658017e-07
2.59160130444e-05
1.6412908781e-05
1.21650040739e-05
1.06098422799e-05
1.01733597068e-05
1.0026807702e-05
9.92702011985e-06
9.83312449175e-06
9.74540650467e-06
9.66015854247e-06
9.5771543527e-06
9.49690288703e-06
9.41867079233e-06
9.34258812859e-06
9.2685538254e-06
9.19634407717e-06
9.12556449563e-06
9.0598212571e-06
8.99195514329e-06
8.92533203001e-06
8.85968558144e-06
8.79489851232e-06
8.73123211649e-06
8.6684044368e-06
8.60629222042e-06
8.54514361974e-06
8.48490498743e-06
8.42568723912e-06
8.36732489755e-06
8.31363566264e-06
8.25753919928e-06
8.20272196795e-06
8.14961693508e-06
8.09824633568e-06
8.0488769678e-06
8.00156907131e-06
7.95654350896e-06
7.91399206638e-06
7.8742788109e-06
7.83757970853e-06
7.80393827734e-06
7.77363182992e-06
7.75036397462e-06
7.726955925e-06
7.70718208465e-06
7.69111936769e-06
7.67880472012e-06
7.67025034177e-06
7.66482241062e-06
7.21720705621e-185
7.21720705622e-185
7.21720705622e-185
7.21720705622e-185
7.21720705622e-185
7.21720705622e-185
7.21720705622e-185
7.21720705623e-185
7.21720705623e-185
7.21720705623e-185
7.21720705623e-185
7.21720705623e-185
7.21720705634e-185
7.2172070622e-185
7.21720738981e-185
7.2172256662e-185
7.21820658105e-185
7.27033349412e-185
7.88162698322e-185
4.71368131848e-22
1.91989711706e-06
2.26664141918e-05
1.52567158403e-05
1.1939875688e-05
1.08415667239e-05
1.0551514941e-05
1.04150224481e-05
1.03039962453e-05
1.01928184326e-05
1.00880996059e-05
9.98672171456e-06
9.88864161596e-06
9.79357263901e-06
9.70528892037e-06
9.61584267091e-06
9.5286137534e-06
9.44397409237e-06
9.36149760719e-06
9.28079832206e-06
9.20179051506e-06
9.12469801773e-06
9.04893813583e-06
8.97464641824e-06
8.90533865066e-06
8.83377372079e-06
8.76342015276e-06
8.69421381336e-06
8.62610222627e-06
8.55947191861e-06
8.49421852965e-06
8.43048769048e-06
8.36821333075e-06
8.30752580861e-06
8.2527921688e-06
8.19623760859e-06
8.14188340031e-06
8.09004578809e-06
8.04102402586e-06
7.9948551283e-06
7.95180189813e-06
7.91193868896e-06
7.87548619904e-06
7.84257899405e-06
7.81339588622e-06
7.78821203559e-06
7.76691526231e-06
7.75323169011e-06
7.73992622228e-06
7.73067367357e-06
7.72489154574e-06
7.21720705582e-185
7.21720705582e-185
7.21720705583e-185
7.21720705583e-185
7.21720705583e-185
7.21720705583e-185
7.21720705583e-185
7.21720705583e-185
7.21720705583e-185
7.21720705584e-185
7.21720705584e-185
7.21720705585e-185
7.21720705622e-185
7.21720707708e-185
7.21720825386e-185
7.21727278809e-185
7.2208194714e-185
7.31147396851e-185
2.86702441736e-71
4.206429573e-17
1.01130097963e-05
2.03773522518e-05
1.43845446003e-05
1.19155174795e-05
1.11843303243e-05
1.09732607022e-05
1.08394188632e-05
1.07046869938e-05
1.05775005313e-05
1.04538641153e-05
1.03384850892e-05
1.02234085711e-05
1.01124312994e-05
1.00048546543e-05
9.90082730303e-06
9.7998188251e-06
9.7018369777e-06
9.60669767526e-06
9.51770108845e-06
9.42722352299e-06
9.33864866593e-06
9.25244109787e-06
9.1678774631e-06
9.0852172864e-06
9.00437220497e-06
8.92516725483e-06
8.85120696505e-06
8.77529489604e-06
8.70098133213e-06
8.62825359888e-06
8.55768693802e-06
8.48907163936e-06
8.42253696266e-06
8.35815596021e-06
8.30002449778e-06
8.2408750423e-06
8.18459275303e-06
8.13128963511e-06
8.08113523527e-06
8.03432287674e-06
7.9913174556e-06
7.95207573872e-06
7.91672667991e-06
7.88546742955e-06
7.85831471756e-06
7.83537512884e-06
7.81673325997e-06
7.80239015698e-06
7.79611754554e-06
7.78613505853e-06
7.21720705548e-185
7.21720705548e-185
7.21720705549e-185
7.21720705549e-185
7.21720705549e-185
7.21720705549e-185
7.21720705549e-185
7.21720705549e-185
7.21720705549e-185
7.2172070555e-185
7.2172070555e-185
7.21720705552e-185
7.21720705679e-185
7.21720712819e-185
7.21721114143e-185
7.21742851451e-185
7.22931610341e-185
7.42768358707e-185
4.69438767532e-47
4.74981210678e-10
2.73059387169e-05
1.84944332939e-05
1.38108804417e-05
1.20621087822e-05
1.16006158526e-05
1.14326009599e-05
1.12846878657e-05
1.11349977313e-05
1.09863715718e-05
1.08427917572e-05
1.07043843628e-05
1.05713644121e-05
1.04428455659e-05
1.031912607e-05
1.02031618162e-05
1.00875539149e-05
9.97553369177e-06
9.86661903497e-06
9.7611298816e-06
9.65850417418e-06
9.56236413799e-06
9.4646184295e-06
9.36961705376e-06
9.27691267183e-06
9.18616909887e-06
9.09760698856e-06
9.01128599532e-06
8.9309281842e-06
8.8485302016e-06
8.76857348129e-06
8.69093439622e-06
8.61560425685e-06
8.54262292565e-06
8.4725492121e-06
8.40532608011e-06
8.34489423478e-06
8.28389819127e-06
8.22624371546e-06
8.17211726835e-06
8.1217008834e-06
8.07546687606e-06
8.0332357109e-06
7.99534306434e-06
7.96177917473e-06
7.93264665095e-06
7.90811968539e-06
7.88814677113e-06
7.87275151741e-06
7.86572738304e-06
7.85530725438e-06
7.21720705519e-185
7.21720705519e-185
7.21720705519e-185
7.21720705519e-185
7.21720705519e-185
7.21720705519e-185
7.21720705519e-185
7.2172070552e-185
7.2172070552e-185
7.2172070552e-185
7.2172070552e-185
7.21720705528e-185
7.21720705939e-185
7.21720728806e-185
7.21721998525e-185
7.21789855694e-185
7.25408463817e-185
7.70511362808e-185
6.96969768293e-28
4.82498605955e-07
2.51340889103e-05
1.7034232548e-05
1.35051257487e-05
1.23583657073e-05
1.20731841471e-05
1.19209052054e-05
1.17510845034e-05
1.15775964705e-05
1.14072098264e-05
1.1242404969e-05
1.10843250397e-05
1.09361431159e-05
1.07899050186e-05
1.06487041745e-05
1.05129529259e-05
1.03817196545e-05
1.02588107179e-05
1.01359748197e-05
1.00170189986e-05
9.90132550026e-06
9.78925901191e-06
9.67998680435e-06
9.57804537938e-06
9.47480769283e-06
9.37395449772e-06
9.27598737394e-06
9.18065287247e-06
9.08769179503e-06
9.00123899261e-06
8.91359803523e-06
8.82867461127e-06
8.74662215843e-06
8.66731962765e-06
8.59116979341e-06
8.51837451469e-06
8.4529416622e-06
8.38707015979e-06
8.32503099754e-06
8.26706694988e-06
8.21311582923e-06
8.16339544162e-06
8.11808837191e-06
8.07756886706e-06
8.0416772251e-06
8.01058527015e-06
7.98435429656e-06
7.96296555658e-06
7.95045417008e-06
7.93882788051e-06
7.93169494508e-06
7.21720705493e-185
7.21720705493e-185
7.21720705493e-185
7.21720705493e-185
7.21720705493e-185
7.21720705493e-185
7.21720705493e-185
7.21720705493e-185
7.21720705494e-185
7.21720705494e-185
7.21720705494e-185
7.21720705522e-185
7.21720707037e-185
7.2172079151e-185
7.21725397115e-185
7.21974409548e-185
7.29735678786e-185
1.611135462e-71
1.64816272165e-18
5.46250224225e-06
2.20374946352e-05
1.59863808906e-05
1.34859135734e-05
1.27934694106e-05
1.26074131698e-05
1.24364101565e-05
1.22386421881e-05
1.20381453881e-05
1.18435546834e-05
1.1660325513e-05
1.14805712905e-05
1.13086199451e-05
1.11431087529e-05
1.09882419392e-05
1.08351088226e-05
1.06875596537e-05
1.05454020359e-05
1.04078407979e-05
1.02788797426e-05
1.01502831056e-05
1.00256634388e-05
9.90447150889e-06
9.78707763685e-06
9.67714754238e-06
9.56598242767e-06
9.45831199609e-06
9.35377518574e-06
9.25195739332e-06
9.157814825e-06
9.06216719965e-06
8.9698430758e-06
8.88089189824e-06
8.79523132622e-06
8.71289575548e-06
8.63455154365e-06
8.56414414804e-06
8.49351843463e-06
8.42709025244e-06
8.36489311913e-06
8.30711181504e-06
8.25426015768e-06
8.20611398607e-06
8.16296550983e-06
8.12475037809e-06
8.09566993823e-06
8.06771247137e-06
8.04490957519e-06
8.0272807879e-06
8.01481649849e-06
8.00719421528e-06
7.2172070547e-185
7.2172070547e-185
7.2172070547e-185
7.2172070547e-185
7.2172070547e-185
7.2172070547e-185
7.2172070547e-185
7.2172070547e-185
7.2172070547e-185
7.21720705471e-185
7.21720705473e-185
7.21720705583e-185
7.21720711695e-185
7.21721051468e-185
7.21739316549e-185
7.22729850076e-185
7.40075118518e-185
2.28949213265e-48
5.21701685004e-12
2.30373438805e-05
1.98355076323e-05
1.53115626368e-05
1.37106838146e-05
1.33350420513e-05
1.31809912489e-05
1.29751082819e-05
1.27421753535e-05
1.25127570494e-05
1.22959359955e-05
1.20845332208e-05
1.18828169464e-05
1.16933572632e-05
1.15082200704e-05
1.13301376423e-05
1.11596251199e-05
1.09993212262e-05
1.08408932744e-05
1.06884615946e-05
1.05409187466e-05
1.04030067793e-05
1.02652953516e-05
1.01319856504e-05
1.0003065531e-05
9.88217842875e-06
9.76056427707e-06
9.64303642363e-06
9.52915381321e-06
9.4188066775e-06
9.31607399328e-06
9.21282696085e-06
9.11323428651e-06
9.01706355269e-06
8.92505555835e-06
8.8370187598e-06
8.75723440537e-06
8.67735809862e-06
8.60169682431e-06
8.53091171916e-06
8.46482168883e-06
8.40357879726e-06
8.34741053393e-06
8.29628775744e-06
8.25454080655e-06
8.21398612567e-06
8.17883879086e-06
8.14919200173e-06
8.1249835617e-06
8.10622712248e-06
8.09290620778e-06
8.08474656676e-06
7.21720705449e-185
7.21720705449e-185
7.21720705449e-185
7.21720705449e-185
7.21720705449e-185
7.21720705449e-185
7.2172070545e-185
7.2172070545e-185
7.2172070545e-185
7.2172070545e-185
7.21720705459e-185
7.21720705926e-185
7.21720731544e-185
7.21722131152e-185
7.21795821272e-185
7.25648554183e-185
7.73150739216e-185
9.67169194133e-28
4.54626299713e-07
2.60133932648e-05
1.82273910324e-05
1.50408910329e-05
1.41242567507e-05
1.39362943043e-05
1.3760446779e-05
1.3517771892e-05
1.32552854682e-05
1.29975958861e-05
1.27506420927e-05
1.25188954946e-05
1.22936493709e-05
1.20788201027e-05
1.18772334038e-05
1.16799853146e-05
1.14908569703e-05
1.13137553045e-05
1.1138983272e-05
1.09710740041e-05
1.08090946909e-05
1.06573682656e-05
1.05066568286e-05
1.03607553759e-05
1.02200561091e-05
1.00880850859e-05
9.95627059095e-06
9.82878440281e-06
9.70522031912e-06
9.58610865279e-06
9.47524062537e-06
9.36395454247e-06
9.25704542697e-06
9.15434933747e-06
9.05594419829e-06
8.96613116476e-06
8.87653142858e-06
8.79166066271e-06
8.71139203676e-06
8.63612167108e-06
8.56605147274e-06
8.50129300353e-06
8.44624476554e-06
8.39221760292e-06
8.34375533034e-06
8.30097119036e-06
8.26383049192e-06
8.23242086254e-06
8.20674959654e-06
8.18681208497e-06
8.1725843661e-06
8.16380551161e-06
7.2172070543e-185
7.21720705431e-185
7.21720705431e-185
7.21720705431e-185
7.21720705431e-185
7.21720705431e-185
7.21720705431e-185
7.21720705431e-185
7.21720705431e-185
7.21720705432e-185
7.21720705474e-185
7.2172070775e-185
7.21720832273e-185
7.21727475906e-185
7.22080706315e-185
7.31377022651e-185
2.52063601054e-71
1.37954376474e-17
7.04649098412e-06
2.25477143376e-05
1.71511821974e-05
1.51644963892e-05
1.47209051028e-05
1.45886280099e-05
1.43605344695e-05
1.40676445845e-05
1.37699412244e-05
1.34827234047e-05
1.32127042559e-05
1.29517118442e-05
1.27069267984e-05
1.24694486966e-05
1.22426053018e-05
1.20299692673e-05
1.18221947661e-05
1.1623363726e-05
1.14365340543e-05
1.12530671603e-05
1.10763566175e-05
1.0910714509e-05
1.07469593616e-05
1.0588921334e-05
1.04361477808e-05
1.02934400773e-05
1.01508637521e-05
1.00134154765e-05
9.88080912028e-06
9.75727794807e-06
9.63365997725e-06
9.51468887261e-06
9.40054111129e-06
9.29109951248e-06
9.19064964358e-06
9.09070015758e-06
8.99573163018e-06
8.90582554516e-06
8.8211284492e-06
8.74177125327e-06
8.67237995714e-06
8.60391966384e-06
8.54103127484e-06
8.48416972122e-06
8.43317386682e-06
8.38819673012e-06
8.3491761252e-06
8.31615245953e-06
8.28920822999e-06
8.26823056912e-06
8.25317859437e-06
8.24385060813e-06
7.21720705414e-185
7.21720705414e-185
7.21720705414e-185
7.21720705414e-185
7.21720705414e-185
7.21720705414e-185
7.21720705414e-185
7.21720705415e-185
7.21720705415e-185
7.21720705419e-185
7.21720705635e-185
7.21720717345e-185
7.21721352086e-185
7.21754631283e-185
7.23505149117e-185
7.50126603065e-185
1.27383823629e-46
7.31000185473e-09
2.86660077323e-05
2.02958889277e-05
1.66546014274e-05
1.55834960749e-05
1.54164503228e-05
1.52516254243e-05
1.4953078595e-05
1.46174925758e-05
1.42892849256e-05
1.397141597e-05
1.36736577634e-05
1.33864059301e-05
1.3113592133e-05
1.2857505177e-05
1.26097049188e-05
1.23772633831e-05
1.21505564636e-05
1.19340533753e-05
1.17306565487e-05
1.15315752972e-05
1.13404312639e-05
1.11610775644e-05
1.09837741894e-05
1.08135320866e-05
1.06540662646e-05
1.0495373205e-05
1.03427726846e-05
1.01956780604e-05
1.00583397234e-05
9.92172336964e-06
9.79022129731e-06
9.66356480516e-06
9.54225397085e-06
9.43077157949e-06
9.31980588946e-06
9.21415890612e-06
9.11393528667e-06
9.01894717471e-06
8.93461269977e-06
8.85111052891e-06
8.77337020818e-06
8.70142388268e-06
8.63570950456e-06
8.5761135447e-06
8.52277887956e-06
8.47559209143e-06
8.43944810196e-06
8.4047990111e-06
8.37638900028e-06
8.35426317086e-06
8.33831202537e-06
8.32836789598e-06
7.21720705399e-185
7.21720705399e-185
7.21720705399e-185
7.21720705399e-185
7.21720705399e-185
7.21720705399e-185
7.21720705399e-185
7.21720705399e-185
7.217207054e-185
7.2172070542e-185
7.21720706501e-185
7.21720765509e-185
7.21723945782e-185
7.21891296088e-185
7.28675960615e-185
5.72057109825e-72
1.1510289393e-20
2.1973528478e-06
2.48303889466e-05
1.88584111852e-05
1.66640455253e-05
1.62290718729e-05
1.61437061942e-05
1.58958567964e-05
1.55401200829e-05
1.51617538945e-05
1.47957387123e-05
1.4452442539e-05
1.41226019646e-05
1.38143776511e-05
1.35169629847e-05
1.32388171684e-05
1.29695913447e-05
1.27176949922e-05
1.24723762108e-05
1.22383766145e-05
1.20189124455e-05
1.18040264392e-05
1.15983202568e-05
1.14051017871e-05
1.12153526715e-05
1.10328957129e-05
1.08618111196e-05
1.06926397092e-05
1.0530006565e-05
1.03780075147e-05
1.02271203808e-05
1.00821560017e-05
9.94286777673e-06
9.81394630955e-06
9.68575477368e-06
9.56326382817e-06
9.44635937738e-06
9.33500464159e-06
9.23461631943e-06
9.1351041814e-06
9.04158036976e-06
8.95419512747e-06
8.87300545352e-06
8.79805778485e-06
8.73421667636e-06
8.67203307965e-06
8.61624163525e-06
8.56703886916e-06
8.52428721892e-06
8.48813056988e-06
8.45845071892e-06
8.43519387061e-06
8.41831349624e-06
8.40769629187e-06
7.21720705385e-185
7.21720705385e-185
7.21720705385e-185
7.21720705385e-185
7.21720705385e-185
7.21720705386e-185
7.21720705386e-185
7.21720705386e-185
7.21720705388e-185
7.21720705527e-185
7.21720712988e-185
7.21721113907e-185
7.21741999975e-185
7.22834065591e-185
7.41537333204e-185
4.45293164561e-48
1.72718583089e-12
1.98218361856e-05
2.19627539392e-05
1.81829980074e-05
1.71260779724e-05
1.70245157464e-05
1.68824912763e-05
1.6529713671e-05
1.61097185945e-05
1.56907601476e-05
1.52956640495e-05
1.49222081863e-05
1.45643562496e-05
1.42302870254e-05
1.39092043129e-05
1.36087956506e-05
1.33185567416e-05
1.30473679455e-05
1.27838745469e-05
1.25374334516e-05
1.22973539228e-05
1.20678005871e-05
1.185238414e-05
1.16414903942e-05
1.14391771545e-05
1.12495956196e-05
1.10627475079e-05
1.08830024659e-05
1.07155462544e-05
1.0549710283e-05
1.03903365948e-05
1.02374287068e-05
1.00953533856e-05
9.95459498752e-06
9.81997560103e-06
9.69150635973e-06
9.57409313065e-06
9.45756801144e-06
9.34722609683e-06
9.24337304966e-06
9.14589656302e-06
9.06004139928e-06
8.9753773879e-06
8.89737009496e-06
8.82597946644e-06
8.76125405047e-06
8.70336085561e-06
8.65214278739e-06