/*--------------------------------*- C++ -*----------------------------------*\
| =========                 |                                                 |
| \\      /  F ield         | foam-extend: Open Source CFD                    |
|  \\    /   O peration     | Version:     4.1                                |
|   \\  /    A nd           | Web:         http://www.foam-extend.org         |
|    \\/     M anipulation  |                                                 |
\*---------------------------------------------------------------------------*/
FoamFile
{
    version     2.0;
    format      ascii;
    class       volScalarField;
    location    "0.0009";
    object      NO;
}
// * * * * * * * * * * * * * * * * * * * * * * * * * * * * * * * * * * * * * //

dimensions      [0 0 0 0 0 0 0];

internalField   nonuniform List<scalar> 
8400
(
2.19526275814e-21
2.19526275815e-21
2.19526275815e-21
2.19526275816e-21
2.19526275816e-21
2.19526275817e-21
2.19526275817e-21
2.19526275818e-21
2.19526275818e-21
2.19526275819e-21
2.19526275819e-21
2.19526275819e-21
2.1952627582e-21
2.1952627582e-21
2.19526275821e-21
2.19526275821e-21
2.1952627583e-21
2.1952627629e-21
2.19526302604e-21
2.19527753245e-21
2.19609194459e-21
2.21178994944e-21
1.65841591323e-08
0.0207845335298
0.0006129208109
4.66869832239e-06
1.54456929399e-06
8.74629330957e-07
6.8134232983e-07
6.18181564253e-07
5.96754130069e-07
5.88494142583e-07
5.84225997001e-07
5.81042386234e-07
5.78320283797e-07
5.75854920769e-07
5.73566360103e-07
5.71403219412e-07
5.6932954516e-07
5.67314345128e-07
5.65356472688e-07
5.63410812234e-07
5.61451899546e-07
5.59462041006e-07
5.57424293105e-07
5.55323782223e-07
5.53166436429e-07
5.51330252356e-07
5.48999234894e-07
5.46575299198e-07
5.44054446738e-07
5.41465300733e-07
5.38793953971e-07
5.36044910649e-07
5.3323289669e-07
5.30396433716e-07
5.27544959986e-07
5.2469855472e-07
5.21886262876e-07
5.19183841658e-07
5.16582339511e-07
5.14114742836e-07
5.11815772262e-07
5.09733969003e-07
5.07889558574e-07
5.063056311e-07
5.05005892042e-07
5.04010006832e-07
5.03331307431e-07
5.02368681076e-07
2.19526275661e-21
2.19526275661e-21
2.19526275661e-21
2.19526275662e-21
2.19526275662e-21
2.19526275662e-21
2.19526275662e-21
2.19526275662e-21
2.19526275663e-21
2.19526275663e-21
2.19526275663e-21
2.19526275663e-21
2.19526275663e-21
2.19526275663e-21
2.19526275664e-21
2.19526275664e-21
2.19526275702e-21
2.19526277868e-21
2.19526401399e-21
2.19533156663e-21
2.19906177628e-21
2.24684619731e-21
0.00145038071944
0.00278135135189
1.96266689822e-05
2.72703653197e-06
1.1388748173e-06
7.40218652293e-07
6.21660374062e-07
5.84195382653e-07
5.72619631963e-07
5.68607492294e-07
5.6668355859e-07
5.65090646385e-07
5.6355724342e-07
5.62007283102e-07
5.60424990392e-07
5.58389811394e-07
5.56720316564e-07
5.55030585509e-07
5.5328098811e-07
5.51464658608e-07
5.49573912217e-07
5.4760927265e-07
5.45579333123e-07
5.43454494543e-07
5.41229550359e-07
5.38901266659e-07
5.36493169972e-07
5.33983155339e-07
5.31373719689e-07
5.28680089541e-07
5.25946548882e-07
5.23146001909e-07
5.20296019951e-07
5.17435184218e-07
5.14581127305e-07
5.11749584397e-07
5.08972688683e-07
5.06320842777e-07
5.03781648803e-07
5.01386524967e-07
4.99166907671e-07
4.97172684335e-07
4.95409288063e-07
4.93900690629e-07
4.92667141317e-07
4.91724733819e-07
4.91083638427e-07
4.90265853473e-07
2.19526275585e-21
2.19526275585e-21
2.19526275586e-21
2.19526275586e-21
2.19526275586e-21
2.19526275586e-21
2.19526275586e-21
2.19526275586e-21
2.19526275586e-21
2.19526275586e-21
2.19526275586e-21
2.19526275587e-21
2.19526275587e-21
2.19526275587e-21
2.19526275587e-21
2.19526275591e-21
2.19526275793e-21
2.19526287419e-21
2.19526936517e-21
2.19563343429e-21
2.20547457921e-21
6.2030127248e-09
0.0262709475431
0.00123888327848
6.34513816761e-06
1.74813874419e-06
8.95274647797e-07
6.61829361186e-07
5.89751307036e-07
5.68244738388e-07
5.62329255436e-07
5.60112913024e-07
5.59091563245e-07
5.58168785231e-07
5.57204340774e-07
5.55764932822e-07
5.54665979837e-07
5.53472417608e-07
5.52184005788e-07
5.50797333464e-07
5.49308199163e-07
5.47735126322e-07
5.46055730059e-07
5.44261287242e-07
5.4234809633e-07
5.40314179355e-07
5.38180973292e-07
5.35927103435e-07
5.33555253242e-07
5.3107080306e-07
5.2852419342e-07
5.25887976639e-07
5.23172268299e-07
5.204004354e-07
5.17608009925e-07
5.14795688377e-07
5.11988528963e-07
5.09245072016e-07
5.0657797068e-07
5.04000057107e-07
5.0154128162e-07
4.99248432696e-07
4.97136456065e-07
4.95226085524e-07
4.93541447843e-07
4.92103781009e-07
4.90933292991e-07
4.90053307056e-07
4.89454580556e-07
4.88756101281e-07
2.19526275538e-21
2.19526275538e-21
2.19526275538e-21
2.19526275538e-21
2.19526275538e-21
2.19526275538e-21
2.19526275538e-21
2.19526275538e-21
2.19526275539e-21
2.19526275539e-21
2.19526275539e-21
2.19526275539e-21
2.19526275539e-21
2.19526275539e-21
2.19526275539e-21
2.19526275557e-21
2.19526276545e-21
2.19526333382e-21
2.19529474746e-21
2.19706238818e-21
2.22492615996e-21
1.18373847868e-05
0.00461774977118
7.49764850675e-05
3.5071943273e-06
1.28516223213e-06
7.73984930917e-07
6.26163224953e-07
5.8049129257e-07
5.66701980368e-07
5.62816735767e-07
5.61410905562e-07
5.60404313222e-07
5.59426754056e-07
5.58403143556e-07
5.56897138663e-07
5.55744914101e-07
5.54510561449e-07
5.53183079472e-07
5.51757131518e-07
5.50226452702e-07
5.48590256377e-07
5.46861476619e-07
5.45012978572e-07
5.43041400535e-07
5.40945037144e-07
5.38735364366e-07
5.36416069346e-07
5.33979610925e-07
5.31432628989e-07
5.28807793039e-07
5.26121105423e-07
5.23362261536e-07
5.20550288421e-07
5.17728938768e-07
5.14904530106e-07
5.12096909888e-07
5.09342781134e-07
5.06696914444e-07
5.04149567548e-07
5.0172845801e-07
4.99464744099e-07
4.97398964289e-07
4.95536039494e-07
4.9389757326e-07
4.9250188596e-07
4.91364275565e-07
4.9049608892e-07
4.89904469689e-07
4.89262224713e-07
2.19526275505e-21
2.19526275505e-21
2.19526275505e-21
2.19526275505e-21
2.19526275505e-21
2.19526275505e-21
2.19526275505e-21
2.19526275506e-21
2.19526275506e-21
2.19526275506e-21
2.19526275506e-21
2.19526275506e-21
2.19526275506e-21
2.19526275506e-21
2.19526275507e-21
2.19526275562e-21
2.19526278687e-21
2.195264569e-21
2.19536208403e-21
2.20070974643e-21
2.26479259197e-21
0.0084477685475
0.00223433680935
1.26700355657e-05
2.37225330133e-06
1.05807586282e-06
7.17756761378e-07
6.16573643153e-07
5.84948581818e-07
5.75577996942e-07
5.72077145356e-07
5.7031501668e-07
5.68803043415e-07
5.67322856233e-07
5.6582198654e-07
5.64303842369e-07
5.62324009444e-07
5.60692360434e-07
5.58984873409e-07
5.57202268803e-07
5.55363131349e-07
5.53428176655e-07
5.5139014089e-07
5.49242955195e-07
5.47002718258e-07
5.44661972848e-07
5.42207339678e-07
5.39641569878e-07
5.36985313152e-07
5.34243768674e-07
5.31415402734e-07
5.28514584771e-07
5.25603277386e-07
5.22656746625e-07
5.19693420806e-07
5.1675091263e-07
5.13857486679e-07
5.11023619284e-07
5.08275893586e-07
5.05677164572e-07
5.03224570986e-07
5.0093602836e-07
4.98836958686e-07
4.96956206606e-07
4.95316440022e-07
4.93922248492e-07
4.92786905066e-07
4.91920156396e-07
4.91328343754e-07
4.90697101714e-07
2.19526275481e-21
2.19526275481e-21
2.19526275481e-21
2.19526275481e-21
2.19526275481e-21
2.19526275481e-21
2.19526275481e-21
2.19526275481e-21
2.19526275481e-21
2.19526275481e-21
2.19526275482e-21
2.19526275482e-21
2.19526275482e-21
2.19526275482e-21
2.19526275485e-21
2.19526275682e-21
2.1952628699e-21
2.19526919991e-21
2.19562451299e-21
2.20540917517e-21
5.97804914949e-09
0.0261372545615
0.00126378577752
6.52337993933e-06
1.80667147907e-06
9.3485795715e-07
6.95724795881e-07
6.22286335553e-07
5.99039715787e-07
5.91562643812e-07
5.87795187082e-07
5.85275301285e-07
5.82959917615e-07
5.80701887764e-07
5.78455569435e-07
5.76204354346e-07
5.73977355779e-07
5.71723350709e-07
5.69429798581e-07
5.66668029907e-07
5.64282055651e-07
5.61817936143e-07
5.5927049157e-07
5.56640037966e-07
5.5395882762e-07
5.51182258965e-07
5.48310545078e-07
5.45366346378e-07
5.42356894671e-07
5.3927034692e-07
5.36122102909e-07
5.32946613189e-07
5.29733290823e-07
5.26500999253e-07
5.23314608593e-07
5.20552834785e-07
5.17457133203e-07
5.14455571622e-07
5.11575459333e-07
5.08824134148e-07
5.062291722e-07
5.03840631963e-07
5.01673622411e-07
4.99731355466e-07
4.98030633287e-07
4.96586833333e-07
4.95410759475e-07
4.94516316446e-07
4.93907277087e-07
4.93290085489e-07
2.19526275463e-21
2.19526275463e-21
2.19526275463e-21
2.19526275463e-21
2.19526275463e-21
2.19526275463e-21
2.19526275463e-21
2.19526275463e-21
2.19526275463e-21
2.19526275463e-21
2.19526275463e-21
2.19526275463e-21
2.19526275463e-21
2.19526275463e-21
2.19526275474e-21
2.1952627609e-21
2.19526311783e-21
2.19528301024e-21
2.19640909076e-21
2.21635383541e-21
7.01500190622e-07
0.0104519494062
0.000387913157992
4.2755380488e-06
1.48330741374e-06
8.69272896176e-07
6.93305868561e-07
6.38119206069e-07
6.20099661987e-07
6.13049386792e-07
6.08580387695e-07
6.05112090504e-07
6.01832638168e-07
5.98620002144e-07
5.95458464756e-07
5.92371889891e-07
5.89294888204e-07
5.86216361448e-07
5.8315446936e-07
5.80065945855e-07
5.76938205703e-07
5.73801355699e-07
5.70622674469e-07
5.67378716143e-07
5.64080374669e-07
5.60727685069e-07
5.57302871909e-07
5.53828840921e-07
5.50330505351e-07
5.46778074891e-07
5.43198268783e-07
5.39621974279e-07
5.36032925257e-07
5.32461448356e-07
5.28939752128e-07
5.25470533067e-07
5.22096015884e-07
5.18864222241e-07
5.15760067661e-07
5.12808872001e-07
5.10059508884e-07
5.07514278411e-07
5.05193223642e-07
5.03116358463e-07
5.01314311408e-07
4.9980075017e-07
4.98570227021e-07
4.97631114166e-07
4.96987885891e-07
4.96363275534e-07
2.19526275448e-21
2.19526275448e-21
2.19526275448e-21
2.19526275448e-21
2.19526275448e-21
2.19526275448e-21
2.19526275449e-21
2.19526275449e-21
2.19526275449e-21
2.19526275449e-21
2.19526275449e-21
2.19526275449e-21
2.19526275449e-21
2.19526275449e-21
2.19526275479e-21
2.19526277199e-21
2.19526375585e-21
2.19531781103e-21
2.19832247732e-21
2.23908552565e-21
0.000322120649173
0.00319957000784
2.84425522448e-05
3.11876291752e-06
1.28769070681e-06
8.38173538336e-07
7.04394051723e-07
6.61317476329e-07
6.4595473365e-07
6.39175597159e-07
6.3371277352e-07
6.29148594863e-07
6.24777621158e-07
6.20520174913e-07
6.16333622212e-07
6.12245199242e-07
6.08190609241e-07
6.04180453204e-07
6.00198132e-07
5.96213656381e-07
5.92275368847e-07
5.88323571852e-07
5.8434345565e-07
5.8035864351e-07
5.76329723959e-07
5.72281426387e-07
5.68229886778e-07
5.64135624377e-07
5.60030932694e-07
5.5590977815e-07
5.51775451143e-07
5.4770624055e-07
5.43652819841e-07
5.39651224566e-07
5.35738817121e-07
5.31900938117e-07
5.28183488085e-07
5.25011350114e-07
5.21604387523e-07
5.18396894108e-07
5.15425101953e-07
5.12678355394e-07
5.10179330182e-07
5.07956883393e-07
5.06027666164e-07
5.04393780439e-07
5.03066575341e-07
5.02054109208e-07
5.01360403831e-07
5.00713697126e-07
2.19526275437e-21
2.19526275437e-21
2.19526275437e-21
2.19526275437e-21
2.19526275437e-21
2.19526275437e-21
2.19526275437e-21
2.19526275437e-21
2.19526275437e-21
2.19526275437e-21
2.19526275437e-21
2.19526275437e-21
2.19526275437e-21
2.19526275438e-21
2.19526275505e-21
2.19526279253e-21
2.19526491096e-21
2.19537995079e-21
2.20158803692e-21
2.27479148789e-21
0.0126967109022
0.00207084229115
1.18302328915e-05
2.44842849726e-06
1.16624713022e-06
8.29819735535e-07
7.2716379086e-07
6.91857407157e-07
6.78008688193e-07
6.70353538416e-07
6.63564365065e-07
6.57639373512e-07
6.51911215777e-07
6.4636357607e-07
6.40958543207e-07
6.35662764136e-07
6.30462619979e-07
6.25346662953e-07
6.20330817445e-07
6.15347582616e-07
6.10442618754e-07
6.05543598835e-07
6.00674014182e-07
5.95806700319e-07
5.90951698486e-07
5.86552312238e-07
5.81711347288e-07
5.76903893697e-07
5.72089020814e-07
5.67324205549e-07
5.62603061618e-07
5.57926985451e-07
5.53343108665e-07
5.48822949842e-07
5.4441976182e-07
5.40134890331e-07
5.36005235742e-07
5.3209000555e-07
5.28359091569e-07
5.24845296167e-07
5.2158064707e-07
5.18573512149e-07
5.15850738378e-07
5.13460196495e-07
5.11380428812e-07
5.09613949352e-07
5.08177065825e-07
5.07082089039e-07
5.06334571532e-07
5.0567194866e-07
2.19526275427e-21
2.19526275427e-21
2.19526275427e-21
2.19526275427e-21
2.19526275427e-21
2.19526275427e-21
2.19526275427e-21
2.19526275428e-21
2.19526275428e-21
2.19526275428e-21
2.19526275428e-21
2.19526275428e-21
2.19526275428e-21
2.19526275431e-21
2.1952627564e-21
2.19526287588e-21
2.19526952405e-21
2.19564003046e-21
2.20574391705e-21
6.14851201032e-09
0.0261655513381
0.00129562577697
7.05299251654e-06
2.02309285145e-06
1.09684004695e-06
8.39942974657e-07
7.58542365543e-07
7.28965493103e-07
7.15588198642e-07
7.06489252534e-07
6.98505338426e-07
6.90924021702e-07
6.83589943245e-07
6.76556000218e-07
6.69700478368e-07
6.630419126e-07
6.56527685508e-07
6.50140373976e-07
6.43898350212e-07
6.37763899293e-07
6.31719536261e-07
6.2573351254e-07
6.19846128569e-07
6.14011134402e-07
6.08241701401e-07
6.02512359012e-07
5.96831721165e-07
5.91190617695e-07
5.85623090432e-07
5.80128792497e-07
5.74703534382e-07
5.69368855864e-07
5.64141020116e-07
5.59066206059e-07
5.54517931142e-07
5.49763487566e-07
5.451846278e-07
5.40833796322e-07
5.36725674241e-07
5.32858799103e-07
5.2928347018e-07
5.26000966573e-07
5.23029076044e-07
5.20401926507e-07
5.1813924038e-07
5.16224634291e-07
5.1466864401e-07
5.13479672113e-07
5.12662442053e-07
5.11964790047e-07
2.1952627542e-21
2.1952627542e-21
2.1952627542e-21
2.1952627542e-21
2.1952627542e-21
2.1952627542e-21
2.1952627542e-21
2.1952627542e-21
2.1952627542e-21
2.1952627542e-21
2.1952627542e-21
2.1952627542e-21
2.1952627542e-21
2.1952627543e-21
2.19526276011e-21
2.19526309269e-21
2.19528146036e-21
2.19631035611e-21
2.2150534852e-21
2.0956162921e-08
0.0142646631103
0.000527281285263
4.85350561253e-06
1.73890647534e-06
1.05894434572e-06
8.63970121455e-07
7.98505116852e-07
7.7229252592e-07
7.58150136827e-07
7.47316127154e-07
7.37407772851e-07
7.27963559856e-07
7.18862431634e-07
7.10073484636e-07
7.01573357622e-07
6.93325090924e-07
6.85315554829e-07
6.77505680475e-07
6.69896960159e-07
6.6247190136e-07
6.55169129558e-07
6.48007899116e-07
6.40955547911e-07
6.34039181054e-07
6.27207784005e-07
6.20936060682e-07
6.14297732072e-07
6.07736678011e-07
6.01329173737e-07
5.9500518159e-07
5.8881757063e-07
5.82739923291e-07
5.76864679484e-07
5.71133142408e-07
5.65621321199e-07
5.60290676999e-07
5.55213276146e-07
5.50368000681e-07
5.45827227439e-07
5.42022645236e-07
5.38078996165e-07
5.34494479362e-07
5.31254271842e-07
5.28375379076e-07
5.2588891481e-07
5.23809945428e-07
5.2212204436e-07
5.20830268108e-07
5.19937565874e-07
5.19203121786e-07
2.19526275413e-21
2.19526275413e-21
2.19526275413e-21
2.19526275413e-21
2.19526275413e-21
2.19526275413e-21
2.19526275413e-21
2.19526275413e-21
2.19526275413e-21
2.19526275413e-21
2.19526275413e-21
2.19526275413e-21
2.19526275414e-21
2.19526275444e-21
2.1952627714e-21
2.19526373221e-21
2.19531606178e-21
2.19819326319e-21
2.23788293151e-21
0.000243827274315
0.00340688239301
3.95352321226e-05
3.59924897229e-06
1.55095643242e-06
1.04910579581e-06
8.97600094328e-07
8.44508602037e-07
8.20912941519e-07
8.05421467276e-07
7.92599121588e-07
7.80561350029e-07
7.68998858927e-07
7.57934747818e-07
7.47231718135e-07
7.36897748698e-07
7.26910318663e-07
7.17252623451e-07
7.07848265223e-07
6.99169719253e-07
6.90269435738e-07
6.81599575557e-07
6.73101231679e-07
6.64771124629e-07
6.5664184143e-07
6.48654988639e-07
6.40817413232e-07
6.33144266082e-07
6.25619307818e-07
6.18282032581e-07
6.11071933988e-07
6.04494305542e-07
5.97641652003e-07
5.90981149393e-07
5.84569269813e-07
5.78387189408e-07
5.72486444592e-07
5.66845433497e-07
5.6151337024e-07
5.56487197749e-07
5.51817845522e-07
5.47522291323e-07
5.43587203994e-07
5.40063562172e-07
5.37376836126e-07
5.34665746001e-07
5.32382099424e-07
5.30539082971e-07
5.29132847029e-07
5.28158428115e-07
5.2738417279e-07
2.19526275407e-21
2.19526275407e-21
2.19526275407e-21
2.19526275407e-21
2.19526275407e-21
2.19526275407e-21
2.19526275407e-21
2.19526275407e-21
2.19526275408e-21
2.19526275408e-21
2.19526275408e-21
2.19526275408e-21
2.19526275409e-21
2.19526275481e-21
2.19526279493e-21
2.19526503331e-21
2.19538516958e-21
2.20176934541e-21
2.27663671984e-21
0.0122913468798
0.00213668160482
1.3612158832e-05
2.8428590238e-06
1.43399160192e-06
1.06165419545e-06
9.45190468924e-07
8.99283446556e-07
8.76038951424e-07
8.58324916799e-07
8.42885871608e-07
8.28294091975e-07
8.14346510161e-07
8.00947507056e-07
7.8861562719e-07
7.76215218563e-07
7.64228563291e-07
7.52695119179e-07
7.415370052e-07
7.30693895812e-07
7.20148604047e-07
7.09940051246e-07
6.99981722253e-07
6.90272119702e-07
6.81273829969e-07
6.72051611993e-07
6.63039734107e-07
6.54221270106e-07
6.45606003254e-07
6.37231574841e-07
6.2906792351e-07
6.21152023683e-07
6.13457617381e-07
6.05983606699e-07
5.99312571583e-07
5.92425308112e-07
5.85856377727e-07
5.79615455468e-07
5.73745713578e-07
5.68236327396e-07
5.63127565196e-07
5.5840426435e-07
5.54120718755e-07
5.50257311253e-07
5.46837043435e-07
5.43907703522e-07
5.41430726124e-07
5.39856688158e-07
5.38318861096e-07
5.37258605335e-07
5.36446196017e-07
2.19526275403e-21
2.19526275403e-21
2.19526275403e-21
2.19526275403e-21
2.19526275403e-21
2.19526275403e-21
2.19526275403e-21
2.19526275403e-21
2.19526275403e-21
2.19526275403e-21
2.19526275403e-21
2.19526275403e-21
2.19526275407e-21
2.19526275663e-21
2.19526290075e-21
2.1952708045e-21
2.19570517992e-21
2.20680797146e-21
7.23745434989e-09
0.0266909923765
0.00128434398951
7.68666573513e-06
2.35410411383e-06
1.37142089323e-06
1.09587390535e-06
1.00272234459e-06
9.62345848508e-07
9.36956143783e-07
9.16874665438e-07
8.98326264985e-07
8.81338211399e-07
8.64575593133e-07
8.4857398746e-07
8.33202561797e-07
8.18472345843e-07
8.04294236336e-07
7.90656598533e-07
7.77517947813e-07
7.65335162147e-07
7.53031519353e-07
7.41077782016e-07
7.29543646235e-07
7.18309161961e-07
7.07401520986e-07
6.96802653048e-07
6.86480915751e-07
6.76936534105e-07
6.67185250679e-07
6.57698422879e-07
6.48472252845e-07
6.39589648615e-07
6.30995469297e-07
6.22701785896e-07
6.14738080548e-07
6.07589283764e-07
6.00346725987e-07
5.93499452495e-07
5.87034834411e-07
5.80993004227e-07
5.75366394441e-07
5.70235434284e-07
5.65567327608e-07
5.61373762291e-07
5.57687752061e-07
5.54489835117e-07
5.5179485302e-07
5.4962197698e-07
5.47958069378e-07
5.47255675704e-07
5.45946259036e-07
2.19526275398e-21
2.19526275398e-21
2.19526275398e-21
2.19526275398e-21
2.19526275398e-21
2.19526275398e-21
2.19526275398e-21
2.19526275399e-21
2.19526275399e-21
2.19526275399e-21
2.19526275399e-21
2.19526275399e-21
2.19526275414e-21
2.19526276289e-21
2.1952632544e-21
2.19528987689e-21
2.19674579387e-21
2.22104059324e-21
4.45036104666e-06
0.0075002176586
0.000404448893537
5.11439250002e-06
2.04281394985e-06
1.35010838437e-06
1.14594540787e-06
1.07001786739e-06
1.03180426814e-06
1.00501673666e-06
9.81390909737e-07
9.59364324234e-07
9.3844892001e-07
9.18572885174e-07
8.99564109947e-07
8.81450024927e-07
8.64646687984e-07
8.48044891113e-07
8.32100142658e-07
8.16734105056e-07
8.01978960313e-07
7.87743310652e-07
7.74527555072e-07
7.61183358288e-07
7.48322672554e-07
7.35873652455e-07
7.23777299902e-07
7.12056106546e-07
7.00707051255e-07
6.90224468334e-07
6.79546172354e-07
6.69261263372e-07
6.5933605169e-07
6.49761363116e-07
6.40548680646e-07
6.3176283807e-07
6.23372448339e-07
6.15889954943e-07
6.08372527519e-07
6.01294145789e-07
5.94704245823e-07
5.88577790385e-07
5.83000969326e-07
5.77909364422e-07
5.73376442735e-07
5.69372176704e-07
5.65904552908e-07
5.63010506524e-07
5.60660079761e-07
5.58850357503e-07
5.58053027883e-07
5.56685011495e-07
2.19526275395e-21
2.19526275395e-21
2.19526275395e-21
2.19526275395e-21
2.19526275395e-21
2.19526275395e-21
2.19526275395e-21
2.19526275395e-21
2.19526275395e-21
2.19526275395e-21
2.19526275395e-21
2.19526275396e-21
2.19526275446e-21
2.19526278247e-21
2.19526433754e-21
2.19534744472e-21
2.19977928792e-21
2.25501847641e-21
0.00228871669748
0.00279391770949
2.66254282437e-05
3.76795813844e-06
1.84870962942e-06
1.36304847047e-06
1.2099920419e-06
1.14645398515e-06
1.10813569864e-06
1.07791192185e-06
1.05040274839e-06
1.02442773294e-06
9.99881344745e-07
9.77155039727e-07
9.54944384772e-07
9.33745071334e-07
9.13576338367e-07
8.94258320537e-07
8.76362816704e-07
8.5862672841e-07
8.41621587259e-07
8.25226410303e-07
8.09488063835e-07
7.94268677503e-07
7.80212700043e-07
7.66076649117e-07
7.52381899983e-07
7.39186042149e-07
7.26443499558e-07
7.14105320703e-07
7.02730151403e-07
6.91267306118e-07
6.80239343471e-07
6.69670364458e-07
6.59520538728e-07
6.49831432627e-07
6.40617015873e-07
6.3241231438e-07
6.24183770086e-07
6.16471077078e-07
6.09324498704e-07
6.02689879436e-07
5.96617124782e-07
5.91094156057e-07
5.86192834967e-07
5.81858284597e-07
5.7812364597e-07
5.7498914343e-07
5.72435554712e-07
5.70974170076e-07
5.69607132385e-07
5.68637718997e-07
2.19526275392e-21
2.19526275392e-21
2.19526275392e-21
2.19526275392e-21
2.19526275392e-21
2.19526275392e-21
2.19526275392e-21
2.19526275392e-21
2.19526275392e-21
2.19526275392e-21
2.19526275392e-21
2.19526275395e-21
2.19526275581e-21
2.19526285926e-21
2.19526849992e-21
2.19557347466e-21
2.20507898814e-21
4.00791495494e-09
0.0233493892873
0.00163623957483
1.05742269728e-05
2.9929362175e-06
1.74898393428e-06
1.40755159939e-06
1.29023136009e-06
1.23224540032e-06
1.1917075821e-06
1.15691852663e-06
1.12471504472e-06
1.09504218444e-06
1.06628227683e-06
1.03915738536e-06
1.01332625185e-06
9.89470574768e-07
9.66127250884e-07
9.43866378977e-07
9.22647210355e-07
9.02329879219e-07
8.83490148267e-07
8.64860413674e-07
8.46978878371e-07
8.29747129841e-07
8.13203404152e-07
7.97871267071e-07
7.82479443795e-07
7.67704307297e-07
7.53478345547e-07
7.39728218121e-07
7.27134769096e-07
7.14421095096e-07
7.02247645104e-07
6.9060434212e-07
6.79467732805e-07
6.68832109899e-07
6.58785898218e-07
6.49836165679e-07
6.40889378267e-07
6.32530207238e-07
6.24755171021e-07
6.17556238544e-07
6.11022654006e-07
6.05082881864e-07
5.99800921689e-07
5.95126127754e-07
5.91607201966e-07
5.88227587242e-07
5.85482902251e-07
5.83371575229e-07
5.81891929169e-07
5.80868772537e-07
2.19526275389e-21
2.19526275389e-21
2.19526275389e-21
2.19526275389e-21
2.19526275389e-21
2.19526275389e-21
2.19526275389e-21
2.19526275389e-21
2.19526275389e-21
2.19526275389e-21
2.19526275389e-21
2.19526275403e-21
2.19526276151e-21
2.19526317764e-21
2.19528554756e-21
2.19649869061e-21
2.21774208237e-21
2.34432885811e-07
0.0135575981167
0.000663622196568
6.27010387986e-06
2.52712819112e-06
1.71889510065e-06
1.47861930114e-06
1.38416266951e-06
1.32731789104e-06
1.28205330928e-06
1.24174003154e-06
1.20488568077e-06
1.16954912237e-06
1.13633932229e-06
1.10556473012e-06
1.07586253176e-06
1.04765396108e-06
1.02096144547e-06
9.9617349341e-07
9.71948684116e-07
9.48888078493e-07
9.26789241238e-07
9.06389822448e-07
8.86201002431e-07
8.66842228253e-07
8.48294490897e-07
8.31086672246e-07
8.13912964639e-07
7.97480143843e-07
7.81694942368e-07
7.66524353391e-07
7.5253408872e-07
7.38573900723e-07
7.25219265168e-07
7.12427867056e-07
7.00284539448e-07
6.88744774029e-07
6.78376330105e-07
6.68045527055e-07
6.58326326854e-07
6.49305140935e-07
6.40923211327e-07
6.33196620112e-07
6.26160992388e-07
6.19770470988e-07
6.14611339951e-07
6.09595328176e-07
6.05270404352e-07
6.01650096176e-07
5.98704465915e-07
5.96434634622e-07
5.94837890661e-07
5.93750831513e-07
2.19526275386e-21
2.19526275386e-21
2.19526275386e-21
2.19526275386e-21
2.19526275386e-21
2.19526275386e-21
2.19526275386e-21
2.19526275386e-21
2.19526275386e-21
2.19526275386e-21
2.19526275387e-21
2.19526275445e-21
2.19526278582e-21
2.19526449997e-21
2.19535475099e-21
2.20007333547e-21
2.25825101832e-21
0.00256260421442
0.00283432402734
3.23948702581e-05
4.38985691694e-06
2.26998837347e-06
1.74009850027e-06
1.56931665464e-06
1.48669108474e-06
1.4286733073e-06
1.3784649995e-06
1.33216383937e-06
1.28887831097e-06
1.2489712861e-06
1.21071075711e-06
1.17476366665e-06
1.14151704719e-06
1.10937923087e-06
1.07897794364e-06
1.05086734991e-06
1.02345301169e-06
9.97418063948e-07
9.72592947834e-07
9.49614710955e-07
9.27004757817e-07
9.0537305071e-07
8.84712595394e-07
8.65539974468e-07
8.46555493698e-07
8.28379952903e-07
8.10928392876e-07
7.94252272052e-07
7.78888925581e-07
7.6357960534e-07
7.49002249647e-07
7.35112608558e-07
7.21903415807e-07
7.099556306e-07
6.98107139483e-07
6.86981980213e-07
6.76529105259e-07
6.66785980082e-07
6.57763931039e-07
6.49492341178e-07
6.42508794656e-07
6.35679037416e-07
6.29582995492e-07
6.24234052539e-07
6.19600922336e-07
6.15718814687e-07
6.12560681736e-07
6.10122087228e-07
6.08399251527e-07
6.07233880283e-07
2.19526275384e-21
2.19526275384e-21
2.19526275384e-21
2.19526275384e-21
2.19526275384e-21
2.19526275384e-21
2.19526275384e-21
2.19526275384e-21
2.19526275384e-21
2.19526275384e-21
2.19526275389e-21
2.19526275668e-21
2.19526290919e-21
2.19527104589e-21
2.19570366024e-21
2.20708920267e-21
6.36605128477e-09
0.0257823924588
0.00151428965444
1.08993064891e-05
3.41188860632e-06
2.16108413515e-06
1.81108072456e-06
1.68007305677e-06
1.60112339269e-06
1.5370092209e-06
1.4797236164e-06
1.42663509198e-06
1.3778287548e-06
1.33141471757e-06
1.28860241386e-06
1.24767752472e-06
1.20913941183e-06
1.17356565409e-06
1.13924828348e-06
1.10682910476e-06
1.07679505575e-06
1.04764777134e-06
1.01989999787e-06
9.9422337873e-07
9.69109813871e-07
9.45132832731e-07
9.22221626726e-07
9.01070836075e-07
8.80117633279e-07
8.60129465659e-07
8.4104501493e-07
8.23453199792e-07
8.05990303063e-07
7.89338576212e-07
7.73501736921e-07
7.5844221482e-07
7.44759776732e-07
7.31237958312e-07
7.18494427381e-07
7.06515982066e-07
6.95307326398e-07
6.84875108902e-07
6.75847623298e-07
6.66966981432e-07
6.58859292511e-07
6.51579404312e-07
6.45070943114e-07
6.39376489351e-07
6.34455010086e-07
6.3030820053e-07
6.26958556501e-07
6.24366020271e-07
6.22524688523e-07
6.21292430631e-07
2.19526275382e-21
2.19526275382e-21
2.19526275382e-21
2.19526275382e-21
2.19526275382e-21
2.19526275382e-21
2.19526275382e-21
2.19526275382e-21
2.19526275382e-21
2.19526275383e-21
2.19526275409e-21
2.19526276843e-21
2.19526354582e-21
2.19530430409e-21
2.19744822802e-21
2.23005250724e-21
1.27836589474e-05
0.00520063657113
0.000346062968101
6.27261161462e-06
2.90961055983e-06
2.14965159837e-06
1.91573926028e-06
1.80460515352e-06
1.72217212194e-06
1.65113773204e-06
1.58669603923e-06
1.5260997134e-06
1.47048743277e-06
1.41775714576e-06
1.36852657028e-06
1.32310054627e-06
1.27978921331e-06
1.23981375668e-06
1.20135437836e-06
1.16513356243e-06
1.13159107199e-06
1.09917743409e-06
1.06843085645e-06
1.03998399383e-06
1.01216308275e-06
9.85770987789e-07
9.61341143974e-07
9.37304679275e-07
9.14434148555e-07
8.92598572551e-07
8.72479220258e-07
8.52629000001e-07
8.33715648249e-07
8.1566782332e-07
7.98536918439e-07
7.82964066061e-07
7.67573487131e-07
7.53053280759e-07
7.393924133e-07
7.26537199993e-07
7.15233570966e-07
7.04093850668e-07
6.93795243688e-07
6.84334041956e-07
6.7575267947e-07
6.67998622039e-07
6.61113988922e-07
6.55033541203e-07
6.50449274119e-07
6.46046006184e-07
6.42455318927e-07
6.39690633181e-07
6.37720655805e-07
6.36412195284e-07
2.1952627538e-21
2.1952627538e-21
2.1952627538e-21
2.1952627538e-21
2.1952627538e-21
2.1952627538e-21
2.1952627538e-21
2.1952627538e-21
2.1952627538e-21
2.19526275383e-21
2.19526275515e-21
2.19526282742e-21
2.19526672242e-21
2.19547168253e-21
2.2037811121e-21
1.4067003443e-09
0.0166992036316
0.00210596105417
1.899548365e-05
4.44278722266e-06
2.67634264298e-06
2.21208911485e-06
2.04278854286e-06
1.93739735368e-06
1.85004690424e-06
1.7700389034e-06
1.69613582197e-06
1.62861038961e-06
1.56493556519e-06
1.50662496598e-06
1.45130462203e-06
1.40048913181e-06
1.35205867441e-06
1.30750924819e-06
1.26475214566e-06
1.2245757981e-06
1.18745693845e-06
1.15160340955e-06
1.11774033472e-06
1.08637133889e-06
1.05594411845e-06
1.02702245345e-06
1.00027825102e-06
9.74082348993e-07
9.49216998264e-07
9.26245174831e-07
9.03664776752e-07
8.82213344996e-07
8.61800704376e-07
8.43117590328e-07
8.24693971103e-07
8.07272025706e-07
7.90792945571e-07
7.75227587679e-07
7.61340220493e-07
7.47658365098e-07
7.34899992616e-07
7.23077815689e-07
7.12173859483e-07
7.02167285599e-07
6.93714388566e-07
6.8552461218e-07
6.78205781338e-07
6.71802793185e-07
6.66254915652e-07
6.6161009885e-07
6.57818917608e-07
6.54868069352e-07
6.52750258035e-07
6.51355145376e-07
2.19526275378e-21
2.19526275378e-21
2.19526275378e-21
2.19526275378e-21
2.19526275378e-21
2.19526275378e-21
2.19526275378e-21
2.19526275378e-21
2.19526275379e-21
2.19526275396e-21
2.1952627631e-21
2.19526325412e-21
2.19528883406e-21
2.1966263272e-21
2.21953291078e-21
4.39718994521e-07
0.0153121187121
0.000844194103012
8.37441740582e-06
3.60180509055e-06
2.62512967266e-06
2.33082695317e-06
2.19046924645e-06
2.07983734857e-06
1.98174953336e-06
1.89157881114e-06
1.80940228751e-06
1.73351245714e-06
1.66222255599e-06
1.59703023632e-06
1.53545871933e-06
1.47896008098e-06
1.42527901837e-06
1.37600003751e-06
1.3288366897e-06
1.28545024479e-06
1.24379112578e-06
1.20452980107e-06
1.16827149678e-06
1.13321210135e-06
1.10000656571e-06
1.06936369615e-06
1.0394839305e-06
1.01109433539e-06
9.84986284293e-07
9.59409519929e-07
9.35093246333e-07
9.12035968054e-07
8.90868665092e-07
8.70068691657e-07
8.50393177806e-07
8.31797101341e-07
8.14987139982e-07
7.98428017212e-07
7.82890101622e-07
7.68389181711e-07
7.54880838188e-07
7.43098253773e-07
7.31535876112e-07
7.20979999549e-07
7.11377719806e-07
7.02714300167e-07
6.95032116855e-07
6.88256909225e-07
6.82434028634e-07
6.78199432156e-07
6.74168535252e-07
6.71052811835e-07
6.68802690061e-07
6.67317863963e-07
2.19526275377e-21
2.19526275377e-21
2.19526275377e-21
2.19526275377e-21
2.19526275377e-21
2.19526275377e-21
2.19526275377e-21
2.19526275377e-21
2.19526275379e-21
2.19526275486e-21
2.19526281102e-21
2.19526575088e-21
2.19541449452e-21
2.20273253897e-21
2.28606099163e-21
0.0106460721434
0.00245616510616
2.98954841572e-05
5.42395832695e-06
3.2360713507e-06
2.68213815086e-06