/*--------------------------------*- C++ -*----------------------------------*\
| =========                 |                                                 |
| \\      /  F ield         | foam-extend: Open Source CFD                    |
|  \\    /   O peration     | Version:     4.1                                |
|   \\  /    A nd           | Web:         http://www.foam-extend.org         |
|    \\/     M anipulation  |                                                 |
\*---------------------------------------------------------------------------*/
FoamFile
{
    version     2.0;
    format      ascii;
    class       volScalarField;
    location    "0.0009";
    object      NOPlus;
}
// * * * * * * * * * * * * * * * * * * * * * * * * * * * * * * * * * * * * * //

dimensions      [0 0 0 0 0 0 0];

internalField   nonuniform List<scalar> 
8400
(
1.21417155874e-66
1.21417155874e-66
1.21417155875e-66
1.21417155875e-66
1.21417155876e-66
1.21417155876e-66
1.21417155877e-66
1.21417155877e-66
1.21417155877e-66
1.21417155878e-66
1.21417155878e-66
1.21417155879e-66
1.21417155879e-66
1.21417155879e-66
1.2141715588e-66
1.2141715588e-66
1.21417155888e-66
1.21417156314e-66
1.21417180681e-66
1.21418523951e-66
1.214939372e-66
1.22947547104e-66
2.39217286949e-26
8.51384419051e-07
0.000439197005243
2.46984865936e-05
1.1768804548e-05
7.87768100582e-06
6.56655581712e-06
6.11151070918e-06
5.95609874204e-06
5.89812095842e-06
5.86959745861e-06
5.84903907863e-06
5.83158683705e-06
5.81578401469e-06
5.80111159838e-06
5.78722925679e-06
5.77390365026e-06
5.76093534219e-06
5.7482655935e-06
5.7356458358e-06
5.72292038086e-06
5.7099753808e-06
5.69670137829e-06
5.68300205899e-06
5.66886231876e-06
5.65682910153e-06
5.64151162062e-06
5.62557570533e-06
5.60899032326e-06
5.59185843431e-06
5.57415331376e-06
5.55592346365e-06
5.53726682581e-06
5.51834631126e-06
5.49928700891e-06
5.48025216678e-06
5.46143612932e-06
5.44323076971e-06
5.42569182836e-06
5.40904774719e-06
5.39353379319e-06
5.37941169945e-06
5.36686969368e-06
5.35609121318e-06
5.34723777943e-06
5.34044359499e-06
5.33579785409e-06
5.32854167544e-06
1.21417155732e-66
1.21417155732e-66
1.21417155732e-66
1.21417155732e-66
1.21417155733e-66
1.21417155733e-66
1.21417155733e-66
1.21417155733e-66
1.21417155733e-66
1.21417155734e-66
1.21417155734e-66
1.21417155734e-66
1.21417155734e-66
1.21417155734e-66
1.21417155734e-66
1.21417155735e-66
1.2141715577e-66
1.21417157776e-66
1.21417272163e-66
1.21423527429e-66
1.21768938819e-66
1.26193699056e-66
4.53135602946e-15
0.000195202504572
6.06566779497e-05
1.73574910323e-05
9.53220995925e-06
7.0043938084e-06
6.1603008433e-06
5.88184348684e-06
5.79508328868e-06
5.76583748851e-06
5.75232732694e-06
5.74145991115e-06
5.7310250016e-06
5.72051056667e-06
5.70982042386e-06
5.69618795704e-06
5.68496793032e-06
5.67354130448e-06
5.66174563127e-06
5.64953578911e-06
5.63686060726e-06
5.62369445706e-06
5.61003972932e-06
5.59577893406e-06
5.58087639248e-06
5.56530970751e-06
5.54911857946e-06
5.53226363525e-06
5.51476263744e-06
5.49669439108e-06
5.47826246579e-06
5.45939313196e-06
5.44020273982e-06
5.42086548435e-06
5.40152828493e-06
5.38234961554e-06
5.36353628318e-06
5.34545815401e-06
5.3281490473e-06
5.31182187639e-06
5.29668931718e-06
5.28299494149e-06
5.27088312069e-06
5.26051773493e-06
5.25203734785e-06
5.2455520653e-06
5.24113006844e-06
5.23498638846e-06
1.21417155662e-66
1.21417155662e-66
1.21417155662e-66
1.21417155662e-66
1.21417155662e-66
1.21417155662e-66
1.21417155662e-66
1.21417155663e-66
1.21417155663e-66
1.21417155663e-66
1.21417155663e-66
1.21417155663e-66
1.21417155663e-66
1.21417155663e-66
1.21417155663e-66
1.21417155667e-66
1.21417155854e-66
1.2141716662e-66
1.21417767674e-66
1.21451479886e-66
1.22362754017e-66
9.08049343599e-27
3.47367954253e-08
0.000480666400083
3.00984384023e-05
1.28481737444e-05
8.04323081048e-06
6.46230748962e-06
5.93375320362e-06
5.7709917353e-06
5.72582972321e-06
5.70946318391e-06
5.70197650453e-06
5.69539433663e-06
5.68862829331e-06
5.67874964121e-06
5.67109532972e-06
5.6628516133e-06
5.65401927507e-06
5.64457486941e-06
5.63448938028e-06
5.62380402071e-06
5.61242946047e-06
5.60032232827e-06
5.587456524e-06
5.57381527046e-06
5.55943437523e-06
5.54427350516e-06
5.52834855333e-06
5.51169332397e-06
5.49452643378e-06
5.47676585327e-06
5.45848682059e-06
5.43981369364e-06
5.42090911291e-06
5.40187971767e-06
5.38289265115e-06
5.36425941014e-06
5.34610583363e-06
5.32856153127e-06
5.31182898511e-06
5.29613976563e-06
5.28166386068e-06
5.26856816444e-06
5.25701762587e-06
5.24715754942e-06
5.23911822955e-06
5.23303243488e-06
5.22888371978e-06
5.2236109838e-06
1.21417155618e-66
1.21417155618e-66
1.21417155618e-66
1.21417155618e-66
1.21417155618e-66
1.21417155618e-66
1.21417155618e-66
1.21417155618e-66
1.21417155619e-66
1.21417155619e-66
1.21417155619e-66
1.21417155619e-66
1.21417155619e-66
1.21417155619e-66
1.21417155619e-66
1.21417155635e-66
1.21417156551e-66
1.21417209181e-66
1.21420118033e-66
1.2158379871e-66
1.24163938988e-66
2.02360126966e-18
6.20646062069e-05
0.000136222807539
2.05117423089e-05
1.03830948981e-05
7.24294069938e-06
6.20205983047e-06
5.86192515141e-06
5.75767441108e-06
5.72839745214e-06
5.71794033752e-06
5.71066653488e-06
5.70374719283e-06
5.69660015684e-06
5.68633655666e-06
5.67836491629e-06
5.66986642055e-06
5.66079295413e-06
5.65110806854e-06
5.64076852383e-06
5.62974976528e-06
5.6180708674e-06
5.60562833429e-06
5.5923978687e-06
5.57836637637e-06
5.56355445232e-06
5.54797816039e-06
5.53164146138e-06
5.5145863555e-06
5.49696830183e-06
5.47888370473e-06
5.46032702665e-06
5.4414237731e-06
5.42235713637e-06
5.40325165054e-06
5.38426506033e-06
5.36561896948e-06
5.34761124467e-06
5.33027468512e-06
5.31379683637e-06
5.29837450579e-06
5.28421360809e-06
5.27144172146e-06
5.26020658736e-06
5.25063365946e-06
5.24282778476e-06
5.2368667757e-06
5.23279879169e-06
5.22796436186e-06
1.21417155588e-66
1.21417155588e-66
1.21417155588e-66
1.21417155588e-66
1.21417155588e-66
1.21417155588e-66
1.21417155588e-66
1.21417155588e-66
1.21417155588e-66
1.21417155588e-66
1.21417155588e-66
1.21417155588e-66
1.21417155588e-66
1.21417155588e-66
1.21417155589e-66
1.2141715564e-66
1.21417158534e-66
1.21417323557e-66
1.21426353291e-66
1.21921538195e-66
1.27855506225e-66
2.08154056281e-11
0.000285834975999
4.63892530283e-05
1.58030375502e-05
9.04691262561e-06
6.84619101842e-06
6.1197444588e-06
5.88440597104e-06
5.81411733948e-06
5.78877637894e-06
5.77634309426e-06
5.76592368594e-06
5.75582881945e-06
5.74566237612e-06
5.73534584376e-06
5.72203910878e-06
5.71104470315e-06
5.6995867416e-06
5.68765591484e-06
5.67530532009e-06
5.662356351e-06
5.64875832924e-06
5.63446854478e-06
5.61952239135e-06
5.60388684168e-06
5.58751797084e-06
5.57043199477e-06
5.55269313451e-06
5.53434849351e-06
5.51543897061e-06
5.49605733632e-06
5.47648662038e-06
5.4566773251e-06
5.43676015248e-06
5.41692570012e-06
5.39735178059e-06
5.37818294342e-06
5.35959677234e-06
5.3419211153e-06
5.32521750409e-06
5.30962959851e-06
5.29533106773e-06
5.28248743313e-06
5.27123688104e-06
5.26166905644e-06
5.25387475982e-06
5.24792093945e-06
5.24385065224e-06
5.23915965202e-06
1.21417155565e-66
1.21417155565e-66
1.21417155565e-66
1.21417155565e-66
1.21417155565e-66
1.21417155565e-66
1.21417155566e-66
1.21417155566e-66
1.21417155566e-66
1.21417155566e-66
1.21417155566e-66
1.21417155566e-66
1.21417155566e-66
1.21417155566e-66
1.21417155569e-66
1.21417155751e-66
1.21417166222e-66
1.21417752371e-66
1.21450653789e-66
1.22356697708e-66
8.75274121142e-27
3.15186672281e-08
0.000478037441814
3.06117086864e-05
1.31187869095e-05
8.26945190143e-06
6.67371636231e-06
6.14281069422e-06
5.97153930708e-06
5.91710156589e-06
5.89092987343e-06
5.8739231209e-06
5.85842487165e-06
5.84336589074e-06
5.82844908539e-06
5.8135549913e-06
5.79877558466e-06
5.78385144601e-06
5.76871079695e-06
5.75055118338e-06
5.73474510063e-06
5.71845179039e-06
5.70163873232e-06
5.68428934013e-06
5.66651874698e-06
5.6481405995e-06
5.62915387668e-06
5.6096361179e-06
5.5896300751e-06
5.56912662209e-06
5.54821120351e-06
5.52699527071e-06
5.50553076688e-06
5.48394147137e-06
5.46253373875e-06
5.44396563826e-06
5.42314455258e-06
5.40291061231e-06
5.38340990492e-06
5.36477708006e-06
5.34719997206e-06
5.33095852119e-06
5.31618122367e-06
5.30293608934e-06
5.29133659544e-06
5.28148685483e-06
5.27346040211e-06
5.26733306398e-06
5.26314102021e-06
5.25855468882e-06
1.21417155548e-66
1.21417155548e-66
1.21417155548e-66
1.21417155548e-66
1.21417155548e-66
1.21417155548e-66
1.21417155548e-66
1.21417155549e-66
1.21417155549e-66
1.21417155549e-66
1.21417155549e-66
1.21417155549e-66
1.21417155549e-66
1.21417155549e-66
1.21417155559e-66
1.2141715613e-66
1.21417189181e-66
1.21419031185e-66
1.21523304424e-66
1.23370155576e-66
1.18301204868e-19
7.57912840693e-06
0.000353619244731
2.33131024677e-05
1.14316568567e-05
7.82850559822e-06
6.63207071381e-06
6.23415628357e-06
6.10374620045e-06
6.05454527096e-06
6.02474778357e-06
6.00206704189e-06
5.98062813812e-06
5.95969980356e-06
5.93912538805e-06
5.91894844783e-06
5.89887613553e-06
5.87883298461e-06
5.85881959556e-06
5.83866794476e-06
5.81829267479e-06
5.79779983404e-06
5.77702266713e-06
5.75584067142e-06
5.73425085856e-06
5.71223841532e-06
5.68976709313e-06
5.66693090565e-06
5.64384187135e-06
5.62040438251e-06
5.59674036129e-06
5.57299303799e-06
5.54916216204e-06
5.52539385288e-06
5.50185281192e-06
5.4786606403e-06
5.45605641075e-06
5.43430202987e-06
5.41340317919e-06
5.39352976747e-06
5.37490192267e-06
5.35764264811e-06
5.34190130736e-06
5.32781405667e-06
5.31555311287e-06
5.30521404302e-06
5.29680671553e-06
5.29038887241e-06
5.28599080261e-06
5.28139794724e-06
1.21417155535e-66
1.21417155535e-66
1.21417155535e-66
1.21417155535e-66
1.21417155535e-66
1.21417155535e-66
1.21417155535e-66
1.21417155535e-66
1.21417155535e-66
1.21417155535e-66
1.21417155535e-66
1.21417155535e-66
1.21417155535e-66
1.21417155536e-66
1.21417155564e-66
1.21417157156e-66
1.2141724826e-66
1.21422253682e-66
1.21700480929e-66
1.2547507339e-66
2.33155947949e-14
0.000146878096671
7.59338660639e-05
1.89281762532e-05
1.03342358609e-05
7.59738835446e-06
6.68059096081e-06
6.3728967283e-06
6.26515058345e-06
6.21962786316e-06
6.18441375556e-06
6.15528380988e-06
6.12738622128e-06
6.10019039559e-06
6.07346342819e-06
6.04723960212e-06
6.02126854774e-06
5.9955147702e-06
5.96988834889e-06
5.94427577131e-06
5.91883004711e-06
5.8932924215e-06
5.86757459436e-06
5.84170815566e-06
5.81556811909e-06
5.78926350236e-06
5.76286904461e-06
5.73620264655e-06
5.7093460264e-06
5.68232774392e-06
5.65521794929e-06
5.62836631971e-06
5.60161682401e-06
5.57514358373e-06
5.54913935921e-06
5.5236196509e-06
5.49880135558e-06
5.47757452646e-06
5.4547583007e-06
5.4332220715e-06
5.41317626979e-06
5.39464316703e-06
5.37777785812e-06
5.36273364015e-06
5.34962426585e-06
5.33851986308e-06
5.329498852e-06
5.32261730789e-06
5.31790236433e-06
5.31320681414e-06
1.21417155524e-66
1.21417155524e-66
1.21417155524e-66
1.21417155524e-66
1.21417155524e-66
1.21417155524e-66
1.21417155524e-66
1.21417155524e-66
1.21417155524e-66
1.21417155525e-66
1.21417155525e-66
1.21417155525e-66
1.21417155525e-66
1.21417155526e-66
1.21417155587e-66
1.21417159058e-66
1.21417355221e-66
1.21428007724e-66
1.22002866476e-66
1.28781387844e-66
1.99011994721e-10
0.000320122255956
4.43808578492e-05
1.60707569314e-05
9.60760521826e-06
7.50864911611e-06
6.80357569453e-06
6.5562176827e-06
6.46272832131e-06
6.41355151148e-06
6.37104863847e-06
6.33410084923e-06
6.29835441744e-06
6.26364117139e-06
6.22975584884e-06
6.19647323964e-06
6.16370568613e-06
6.13142195311e-06
6.09964085654e-06
6.06807484864e-06
6.03682687606e-06
6.00563188902e-06
5.97448243521e-06
5.94330031268e-06
5.91211473798e-06
5.88375282707e-06
5.85253492552e-06
5.82134437327e-06
5.7900964989e-06
5.75908804829e-06
5.72830421781e-06
5.69775866031e-06
5.66767111598e-06
5.63799099658e-06
5.6089154834e-06
5.5805750509e-06
5.55321334163e-06
5.52714080157e-06
5.50228772214e-06
5.4788114992e-06
5.45689410505e-06
5.43670160084e-06
5.41842118032e-06
5.40229084961e-06
5.38823430128e-06
5.37628546704e-06
5.36656209745e-06
5.35915598311e-06
5.35410599921e-06
5.34933677032e-06
1.21417155516e-66
1.21417155516e-66
1.21417155516e-66
1.21417155516e-66
1.21417155516e-66
1.21417155516e-66
1.21417155516e-66
1.21417155516e-66
1.21417155516e-66
1.21417155516e-66
1.21417155516e-66
1.21417155516e-66
1.21417155516e-66
1.21417155519e-66
1.21417155713e-66
1.21417166776e-66
1.21417782386e-66
1.21452090681e-66
1.22387694267e-66
8.99589421405e-27
3.20195254306e-08
0.000475119665719
3.20798517526e-05
1.40834072391e-05
9.16090316289e-06
7.53346547772e-06
6.97881249882e-06
6.77688556368e-06
6.69037782875e-06
6.63416730404e-06
6.58550250976e-06
6.53933110827e-06
6.49461864121e-06
6.45148275193e-06
6.40938445965e-06
6.36831746311e-06
6.32802940676e-06
6.28840198452e-06
6.24953162566e-06
6.21123906132e-06
6.17335130106e-06
6.13575002368e-06
6.09860445616e-06
6.06171055368e-06
6.02507417215e-06
5.98860749306e-06
5.95230386467e-06
5.91615537144e-06
5.88034207891e-06
5.84488312e-06
5.80975950421e-06
5.77509049386e-06
5.74104553052e-06
5.70783483672e-06
5.67806008538e-06
5.64676718803e-06
5.61661316654e-06
5.58784976151e-06
5.56060854271e-06
5.53495548147e-06
5.51109854257e-06
5.48916263224e-06
5.4692984909e-06
5.45169505932e-06
5.43646786622e-06
5.42357930873e-06
5.41310270782e-06
5.40509855535e-06
5.39960063629e-06
5.3946207983e-06
1.21417155508e-66
1.21417155508e-66
1.21417155508e-66
1.21417155508e-66
1.21417155508e-66
1.21417155508e-66
1.21417155508e-66
1.21417155508e-66
1.21417155508e-66
1.21417155508e-66
1.21417155509e-66
1.21417155509e-66
1.21417155509e-66
1.21417155518e-66
1.21417156056e-66
1.21417186852e-66
1.21418887669e-66
1.21514161754e-66
1.23249745246e-66
3.00418103001e-26
3.02866618633e-06
0.000411480830675
2.52152603677e-05
1.26529468045e-05
8.88975305848e-06
7.64304464812e-06
7.20323125467e-06
7.0309831865e-06
6.94323372872e-06
6.87845069765e-06
6.81963085089e-06
6.76347749901e-06
6.70919088516e-06
6.65644723025e-06
6.60526733774e-06
6.55545499462e-06
6.5067767471e-06
6.4591848965e-06
6.41263933523e-06
6.36698757064e-06
6.32199360462e-06
6.27760424156e-06
6.23378489834e-06
6.19061726215e-06
6.14780214638e-06
6.10838476849e-06
6.06643885017e-06
6.02489365466e-06
5.98407127444e-06
5.94372676478e-06
5.90398654026e-06
5.86490737368e-06
5.82689572693e-06
5.78976733153e-06
5.75383921979e-06
5.71907099762e-06
5.68572981451e-06
5.65389633237e-06
5.6239240647e-06
5.59876883582e-06
5.57265748978e-06
5.54881737463e-06
5.52725013967e-06
5.50808035252e-06
5.4914814488e-06
5.4775483675e-06
5.46623609269e-06
5.45757933236e-06
5.45159888369e-06
5.44639598211e-06
1.21417155502e-66
1.21417155502e-66
1.21417155502e-66
1.21417155502e-66
1.21417155502e-66
1.21417155502e-66
1.21417155502e-66
1.21417155502e-66
1.21417155502e-66
1.21417155502e-66
1.21417155502e-66
1.21417155502e-66
1.21417155503e-66
1.21417155531e-66
1.21417157101e-66
1.21417246071e-66
1.21422091704e-66
1.2168851591e-66
1.25363715115e-66
1.84507347954e-14
0.000128686688551
9.24424320172e-05
2.06996261478e-05
1.16401526267e-05
8.77889905763e-06
7.80912514479e-06
7.45939211053e-06
7.31084289729e-06
7.21885072738e-06
7.14436406006e-06
7.07456457491e-06
7.00725817749e-06
6.9425036003e-06
6.87962309701e-06
6.81866771657e-06
6.75952126004e-06
6.70199292095e-06
6.6456974305e-06
6.59355947988e-06
6.53979181358e-06
6.48714833376e-06
6.43536359786e-06
6.3843455933e-06
6.33430075408e-06
6.28497271271e-06
6.23628731692e-06
6.18842576515e-06
6.14133151745e-06
6.09511501743e-06
6.0495726782e-06
6.007816085e-06
5.96413055089e-06
5.92150380978e-06
5.88026196829e-06
5.84039098285e-06
5.8021212494e-06
5.76546928811e-06
5.73063480441e-06
5.69773199929e-06
5.66705136235e-06
5.63872494189e-06
5.61276340698e-06
5.58938303449e-06
5.57154510091e-06
5.55351891574e-06
5.53834023628e-06
5.52605132892e-06
5.51665740548e-06
5.51015082559e-06
5.5046850314e-06
1.21417155497e-66
1.21417155497e-66
1.21417155497e-66
1.21417155497e-66
1.21417155497e-66
1.21417155497e-66
1.21417155497e-66
1.21417155497e-66
1.21417155497e-66
1.21417155497e-66
1.21417155497e-66
1.21417155497e-66
1.21417155498e-66
1.21417155565e-66
1.2141715928e-66
1.2141736655e-66
1.21428490975e-66
1.22019655349e-66
1.28952253343e-66
1.79460064605e-10
0.000308390735087
4.82611475429e-05
1.76389212094e-05
1.09623701605e-05
8.79408575458e-06
8.05224049732e-06
7.76030132283e-06
7.62139306435e-06
7.52036555798e-06
7.4333275859e-06
7.3508647079e-06
7.27160999883e-06
7.19501043117e-06
7.12411942572e-06
7.0523983915e-06
6.98264207743e-06
6.91511921667e-06
6.8494776106e-06
6.78539829823e-06
6.72281334057e-06
6.66188986259e-06
6.60211931627e-06
6.54356219046e-06
6.48907645082e-06
6.43282407229e-06
6.37761112308e-06
6.32335622187e-06
6.2700325665e-06
6.21794208265e-06
6.16697093517e-06
6.11725111913e-06
6.06869898452e-06
6.02137248236e-06
5.97884779646e-06
5.93482857345e-06
5.89261385383e-06
5.85238191433e-06
5.81436622914e-06
5.77857915897e-06
5.74524417197e-06
5.71439606984e-06
5.68624107005e-06
5.66083668624e-06
5.63831957905e-06
5.61892606703e-06
5.60252002339e-06
5.59212125011e-06
5.58194104084e-06
5.57493700468e-06
5.56929787283e-06
1.21417155493e-66
1.21417155493e-66
1.21417155493e-66
1.21417155493e-66
1.21417155493e-66
1.21417155493e-66
1.21417155493e-66
1.21417155493e-66
1.21417155493e-66
1.21417155493e-66
1.21417155493e-66
1.21417155493e-66
1.21417155497e-66
1.21417155734e-66
1.21417169079e-66
1.21417900953e-66
1.21458123416e-66
1.22486223987e-66
1.05632010619e-26
4.40829729873e-08
0.000478485744687
3.37328073729e-05
1.54667341529e-05
1.05549230968e-05
8.93059724886e-06
8.34631685089e-06
8.1001522742e-06
7.95645395811e-06
7.84610614133e-06
7.74452246447e-06
7.65102850386e-06
7.5581122191e-06
7.46879736391e-06
7.38239905432e-06
7.29903604732e-06
7.21825985767e-06
7.14005561846e-06
7.06422527777e-06
6.99349459244e-06
6.92160883696e-06
6.85136121002e-06
6.78311510669e-06
6.7162937637e-06
6.65109724005e-06
6.58744352956e-06
6.52513841612e-06
6.46713265268e-06
6.40754936288e-06
6.34930384379e-06
6.29236114372e-06
6.23717664711e-06
6.18354950324e-06
6.13157789299e-06
6.08131776419e-06
6.03607718565e-06
5.98999563026e-06
5.94621431402e-06
5.90475338472e-06
5.86577342937e-06
5.82941183252e-06
5.79607918275e-06
5.7656971825e-06
5.73834108275e-06
5.71417382017e-06
5.69320129323e-06
5.67553023577e-06
5.6612383667e-06
5.6502704663e-06
5.64568798674e-06
5.63675402828e-06
1.21417155489e-66
1.21417155489e-66
1.21417155489e-66
1.21417155489e-66
1.21417155489e-66
1.21417155489e-66
1.21417155489e-66
1.21417155489e-66
1.21417155489e-66
1.21417155489e-66
1.21417155489e-66
1.21417155489e-66
1.21417155504e-66
1.21417156313e-66
1.21417201827e-66
1.21419667026e-66
1.21554482588e-66
1.23804141784e-66
7.64726305008e-19
1.82300248419e-05
0.000360615801841
2.59321306388e-05
1.39618220247e-05
1.03620727987e-05
9.15125487368e-06
8.68739905521e-06
8.46706054351e-06
8.32172745485e-06
8.19618298066e-06
8.07891796337e-06
7.96677687767e-06
7.85936907899e-06
7.75583001222e-06
7.65637268213e-06
7.56338839466e-06
7.47079235431e-06
7.38122614245e-06
7.29429182547e-06
7.21022144004e-06
7.1285504005e-06
7.05227314231e-06
6.97464292304e-06
6.89933405965e-06
6.82596999792e-06
6.75423605802e-06
6.68429187061e-06
6.61615598961e-06
6.55290185948e-06
6.48810128838e-06
6.42532867426e-06
6.36443389782e-06
6.30538707166e-06
6.24822384168e-06
6.19338785281e-06
6.14078789826e-06
6.09365632076e-06
6.04602657069e-06
6.00106124798e-06
5.95891299273e-06
5.91966944696e-06
5.88372768509e-06
5.850888812e-06
5.82147501921e-06
5.7954684364e-06
5.77294648071e-06
5.75405026367e-06
5.73869441611e-06
5.72687005117e-06
5.72171190603e-06
5.7124963586e-06
1.21417155485e-66
1.21417155485e-66
1.21417155485e-66
1.21417155485e-66
1.21417155485e-66
1.21417155485e-66
1.21417155485e-66
1.21417155485e-66
1.21417155485e-66
1.21417155486e-66
1.21417155486e-66
1.21417155486e-66
1.21417155533e-66
1.21417158126e-66
1.21417302123e-66
1.21424997715e-66
1.21835379239e-66
1.26950438906e-66
1.30803624353e-13
0.000196697518878
7.25517365055e-05
2.11570218561e-05
1.29465227985e-05
1.03471856443e-05
9.44247576034e-06
9.06900324434e-06
8.86104474471e-06
8.70415530105e-06
8.56226667142e-06
8.42755498821e-06
8.2990270913e-06
8.17903707714e-06
8.06085792606e-06
7.94710429815e-06
7.83795887945e-06
7.7325516289e-06
7.63415335341e-06
7.5358010474e-06
7.44077559144e-06
7.34845054029e-06
7.25914979436e-06
7.17214637718e-06
7.09121493084e-06
7.00921593772e-06
6.92922150766e-06
6.85160992611e-06
6.77616029083e-06
6.70261141224e-06
6.63439383249e-06
6.56519099709e-06
6.49822593777e-06
6.4335975998e-06
6.37121510178e-06
6.31137575807e-06
6.2542254527e-06
6.2030269077e-06
6.15140908295e-06
6.10286195199e-06
6.05757243305e-06
6.01543464517e-06
5.97664278906e-06
5.9413077837e-06
5.90977242661e-06
5.88187408751e-06
5.85776730242e-06
5.83745992447e-06
5.82091123585e-06
5.8114899539e-06
5.8026565122e-06
5.79615404665e-06
1.21417155482e-66
1.21417155482e-66
1.21417155482e-66
1.21417155482e-66
1.21417155482e-66
1.21417155482e-66
1.21417155482e-66
1.21417155483e-66
1.21417155483e-66
1.21417155483e-66
1.21417155483e-66
1.21417155486e-66
1.21417155658e-66
1.21417165238e-66
1.21417687553e-66
1.21445927721e-66
1.22326122922e-66
5.87710931716e-27
9.83114988254e-09
0.000418708734536
4.10815427098e-05
1.80502529264e-05
1.23564119383e-05
1.04939223493e-05
9.81110407902e-06
9.48920599912e-06
9.28153292638e-06
9.10786472725e-06
8.94684642098e-06
8.79713031155e-06
8.65058611376e-06
8.51083147487e-06
8.37649791822e-06
8.251249662e-06
8.12745958614e-06
8.0083719409e-06
7.893934577e-06
7.78348491786e-06
7.68022789617e-06
7.57723909625e-06
7.47758457916e-06
7.38077307193e-06
7.28708637163e-06
7.19960045818e-06
7.11107222846e-06
7.02546058162e-06
6.94241541e-06
6.86155338301e-06
6.78700556991e-06
6.71118359041e-06
6.63810855498e-06
6.56776979623e-06
6.50007726792e-06
6.43504096856e-06
6.37319341915e-06
6.3178012396e-06
6.26214885581e-06
6.20989631626e-06
6.16107008564e-06
6.11573431551e-06
6.07435751376e-06
6.03668622948e-06
6.00299659363e-06
5.97315984657e-06
5.95065395308e-06
5.92893380279e-06
5.91130531148e-06
5.89775696944e-06
5.88828194058e-06
5.88148583057e-06
1.2141715548e-66
1.2141715548e-66
1.2141715548e-66
1.2141715548e-66
1.2141715548e-66
1.2141715548e-66
1.2141715548e-66
1.2141715548e-66
1.2141715548e-66
1.2141715548e-66
1.2141715548e-66
1.21417155493e-66
1.21417156186e-66
1.21417194719e-66
1.21419266137e-66
1.21531601225e-66
1.23498705003e-66
3.67952850436e-20
3.67054375387e-06
0.000452490535581
2.94244950279e-05
1.59873344533e-05
1.2093491318e-05
1.07705043947e-05
1.02402140465e-05
9.94544651238e-06
9.72433714263e-06
9.53005249838e-06
9.35114661373e-06
9.17772438476e-06
9.01277964522e-06
8.85830719499e-06
8.70752701217e-06
8.56282227677e-06
8.4244154617e-06
8.2947074598e-06
8.16654751589e-06
8.04345269007e-06
7.92441977376e-06
7.81347965791e-06
7.70276539818e-06
7.59581351196e-06
7.4925178167e-06
7.39591280449e-06
7.29865422426e-06
7.20482072846e-06
7.11397664029e-06
7.02598643467e-06
6.94427592216e-06
6.86208760019e-06
6.7829271197e-06
6.7065464051e-06
6.63353614237e-06
6.56369120276e-06
6.50058711967e-06
6.43731770647e-06
6.37747163662e-06
6.32155683366e-06
6.26938580735e-06
6.22108927253e-06
6.17685766512e-06
6.13659823639e-06
6.10394398053e-06
6.07211269137e-06
6.04461767288e-06
6.02151689183e-06
6.00272771891e-06
5.98826402958e-06
5.97811350766e-06
5.97097009929e-06
1.21417155477e-66
1.21417155477e-66
1.21417155477e-66
1.21417155477e-66
1.21417155478e-66
1.21417155478e-66
1.21417155478e-66
1.21417155478e-66
1.21417155478e-66
1.21417155478e-66
1.21417155479e-66
1.21417155532e-66
1.21417158437e-66
1.21417317165e-66
1.21425674263e-66
1.21862607568e-66
1.27249767067e-66
1.8257789816e-13
0.000192790167775
8.14711593801e-05
2.32271865303e-05
1.4727148959e-05
1.20800309956e-05
1.11391301883e-05
1.07024484095e-05
1.04210707783e-05
1.01862189565e-05
9.96950215221e-06
9.76471991296e-06
9.57370506927e-06
9.38859034827e-06
9.21253471033e-06
9.04779856679e-06
8.88671812653e-06
8.7325618168e-06
8.58856925855e-06
8.44654485778e-06
8.31033243328e-06
8.17904227574e-06
8.05642714915e-06
7.93457956198e-06
7.81683858548e-06
7.70338083003e-06
7.59720832095e-06
7.49115421472e-06
7.38884271478e-06
7.28981204889e-06
7.19440270508e-06
7.10582685919e-06
7.01683427815e-06
6.93146200875e-06
6.84951951616e-06
6.77102645463e-06
6.69959398686e-06
6.62823671675e-06
6.56076932353e-06
6.49700738589e-06
6.43726049192e-06
6.38168356648e-06
6.33037371549e-06
6.28696035756e-06
6.24425067383e-06
6.20602509593e-06
6.17235028585e-06
6.14317371899e-06
6.11859974186e-06
6.09860602586e-06
6.08318636771e-06
6.07232171816e-06
6.06476593866e-06
1.21417155475e-66
1.21417155475e-66
1.21417155475e-66
1.21417155475e-66
1.21417155475e-66
1.21417155475e-66
1.21417155475e-66
1.21417155475e-66
1.21417155475e-66
1.21417155476e-66
1.2141715548e-66
1.21417155738e-66
1.2141716986e-66
1.21417923306e-66
1.21457982696e-66
1.22512265543e-66
9.28997348726e-27
2.62476244465e-08
0.000446032470192
4.16614783695e-05
1.95100402535e-05
1.40868838309e-05
1.22969212164e-05
1.15963838193e-05
1.12096424113e-05
1.09169567488e-05
1.06589682929e-05
1.04179271275e-05
1.01933574249e-05
9.9768152638e-06
9.77443994462e-06
9.57835048642e-06
9.3914020877e-06
9.21694698461e-06
9.04668240061e-06
8.88404018726e-06
8.7316254289e-06
8.58201947222e-06
8.43807898179e-06
8.3035109912e-06
8.17045467602e-06
8.04223636776e-06
7.91839697249e-06
7.80304650164e-06
7.68768993542e-06
7.5766466317e-06
7.46961059806e-06
7.37015330686e-06
7.27056648101e-06
7.17491128545e-06
7.08327415806e-06
6.99546781432e-06
6.91511203364e-06
6.83508198755e-06
6.75914978021e-06
6.68730856447e-06
6.61966949504e-06
6.55632979434e-06
6.50119916745e-06
6.44669679444e-06
6.39672096726e-06
6.35160172791e-06
6.31117947417e-06
6.27562605358e-06
6.2448613049e-06
6.21891782788e-06
6.19787393376e-06
6.18160703647e-06
6.17008593653e-06
6.16218499322e-06
1.21417155473e-66
1.21417155473e-66
1.21417155474e-66
1.21417155474e-66
1.21417155474e-66
1.21417155474e-66
1.21417155474e-66
1.21417155474e-66
1.21417155474e-66
1.21417155474e-66
1.21417155499e-66
1.21417156827e-66
1.21417228812e-66
1.21421002961e-66
1.21619526856e-66
1.2463863047e-66
2.16618624651e-18
4.73544013719e-05
0.000330417351053
2.92140987397e-05
1.73554079455e-05
1.38778356418e-05
1.26683851272e-05
1.21095612586e-05
1.1735242408e-05
1.14263027867e-05
1.1145720545e-05
1.0878330488e-05
1.06293933003e-05
1.03896332758e-05
1.01625677706e-05
9.95012992312e-06
9.74470087625e-06
9.55266406289e-06
9.36544486533e-06
9.1869545551e-06
9.0197549233e-06
8.85645356288e-06
8.69989487239e-06
8.5534097562e-06
8.40854844236e-06
8.26963214399e-06
8.13983950225e-06
8.0106558872e-06
7.88657909183e-06
7.76700394917e-06
7.65577113063e-06
7.54495460805e-06
7.43846016181e-06
7.33596433442e-06
7.23785714226e-06
7.1479512273e-06
7.05836310422e-06
6.97324585561e-06
6.89264352546e-06
6.81630586244e-06
6.74877775271e-06
6.68178067798e-06
6.61952608291e-06
6.56201143418e-06
6.50956072714e-06
6.46202360018e-06
6.41956207014e-06
6.38201923757e-06
6.35359870433e-06
6.32625109438e-06
6.30396897971e-06
6.28675873001e-06
6.27451607378e-06
6.26621668285e-06
1.21417155472e-66
1.21417155472e-66
1.21417155472e-66
1.21417155472e-66
1.21417155472e-66
1.21417155472e-66
1.21417155472e-66
1.21417155472e-66
1.21417155472e-66
1.21417155474e-66
1.21417155597e-66
1.21417162289e-66
1.21417522959e-66
1.21436501934e-66
1.22205941697e-66
2.07046192516e-27
9.27306948719e-10
0.000321850951505
5.861309219e-05
2.31562967977e-05
1.62052501209e-05
1.39949338081e-05
1.31384377161e-05
1.265172377e-05
1.22791248062e-05
1.19438805933e-05
1.16316429669e-05
1.13418044984e-05
1.10639373166e-05
1.08054239161e-05
1.05562978653e-05
1.03240250335e-05
1.00994139968e-05
9.88995644653e-06
9.68610254105e-06
9.49202721413e-06
9.31047084465e-06
9.13276234357e-06
8.96293958888e-06
8.80380460759e-06
8.64769130682e-06
8.49788477201e-06
8.3578487149e-06
8.21926093608e-06
8.08623873762e-06
7.9622134857e-06
7.83900893341e-06
7.72080855223e-06
7.60730772557e-06
7.50254917036e-06
7.39827525949e-06
7.29877624044e-06
7.20390557554e-06
7.113589246e-06
7.03246059116e-06
6.95190780292e-06
6.87629547023e-06
6.80573712301e-06
6.74029039579e-06
6.67993646793e-06
6.62880558675e-06
6.57894445292e-06
6.53428671041e-06
6.4950126203e-06
6.46097523126e-06
6.43234375798e-06
6.4089761123e-06
6.39081329345e-06
6.37781688295e-06
6.36909972378e-06
1.2141715547e-66
1.2141715547e-66
1.2141715547e-66
1.2141715547e-66
1.2141715547e-66
1.2141715547e-66
1.2141715547e-66
1.2141715547e-66
1.21417155471e-66
1.21417155486e-66
1.21417156332e-66
1.214172018e-66
1.21419570461e-66
1.21543420167e-66
1.23664532822e-66
7.21909564982e-20
2.58186590518e-06
0.000487247975306
3.50243361691e-05
1.99218666775e-05
1.57843798143e-05
1.43577778453e-05
1.36927975587e-05
1.3225398701e-05
1.28284225266e-05
1.24624799662e-05
1.21239176173e-05
1.18056341713e-05
1.15020217088e-05
1.12198526789e-05
1.09489290588e-05
1.06964126364e-05
1.04527197061e-05
1.02257087437e-05
1.00052366932e-05
9.79971790344e-06
9.59959179621e-06
9.40849342588e-06
9.22976059421e-06
9.05472959026e-06
8.88699556218e-06
8.73034853122e-06
8.57585976258e-06
8.42743121509e-06
8.28958667031e-06
8.15321426274e-06
8.02231813775e-06
7.89684875058e-06
7.78061159693e-06
7.66529731933e-06
7.55518800476e-06
7.45016582338e-06
7.35449355585e-06
7.25941025989e-06
7.16951193407e-06
7.08499686231e-06
7.00570205742e-06
6.93616094231e-06
6.86743454988e-06
6.80428020165e-06
6.74656164998e-06
6.69430132753e-06
6.64767981447e-06
6.60650871883e-06
6.57093095295e-06
6.54512652409e-06
6.52047250525e-06
6.50137839079e-06
6.48763677848e-06
6.47845379869e-06
1.21417155469e-66
1.21417155469e-66
1.21417155469e-66
1.21417155469e-66
1.21417155469e-66
1.21417155469e-66
1.21417155469e-66
1.21417155469e-66
1.21417155471e-66
1.2141715557e-66
1.21417160771e-66
1.21417432997e-66
1.21431206418e-66
1.22108845518e-66
1.29824925695e-66
1.00515325826e-10
0.000255912433227
7.70750582726e-05