/*--------------------------------*- C++ -*----------------------------------*\
| =========                 |                                                 |
| \\      /  F ield         | foam-extend: Open Source CFD                    |
|  \\    /   O peration     | Version:     4.1                                |
|   \\  /    A nd           | Web:         http://www.foam-extend.org         |
|    \\/     M anipulation  |                                                 |
\*---------------------------------------------------------------------------*/
FoamFile
{
    version     2.0;
    format      ascii;
    class       volScalarField;
    location    "0.0009";
    object      NPlus;
}
// * * * * * * * * * * * * * * * * * * * * * * * * * * * * * * * * * * * * * //

dimensions      [0 0 0 0 0 0 0];

internalField   nonuniform List<scalar> 
8400
(
9.99867028505e-266
9.9986702851e-266
9.99867028516e-266
9.99867028521e-266
9.99867028527e-266
9.99867028532e-266
9.99867028537e-266
9.99867028542e-266
9.99867028547e-266
9.99867028552e-266
9.99867028557e-266
9.99867028562e-266
9.99867028566e-266
9.99867028571e-266
9.99867028575e-266
9.99867028581e-266
9.99867028677e-266
9.99867033909e-266
9.99867333084e-266
9.99883825762e-266
1.00080975032e-265
1.01865718582e-265
4.43229626091e-99
1.16235384163e-15
0.000664750712135
0.213191324796
0.401223016822
0.493840473074
0.532639877476
0.547635045179
0.552781995843
0.554483218596
0.555162995197
0.555577193276
0.555907512753
0.556202167259
0.556475347437
0.556734748726
0.556985141044
0.557230395705
0.557472451066
0.557715279985
0.557961662235
0.558213711545
0.558473485863
0.558742801519
0.559023462775
0.559260896748
0.559567175347
0.55988598864
0.560218459578
0.560563950866
0.560921964247
0.561291191115
0.561669585562
0.56205526481
0.562444672385
0.56283403045
0.563219382177
0.563594538064
0.563956566092
0.564300650057
0.564621890083
0.564915849985
0.565177876945
0.565403820066
0.565590372884
0.565734766572
0.565835388207
0.566075838173
9.99867026761e-266
9.99867026763e-266
9.99867026765e-266
9.99867026768e-266
9.9986702677e-266
9.99867026772e-266
9.99867026774e-266
9.99867026776e-266
9.99867026778e-266
9.9986702678e-266
9.99867026782e-266
9.99867026784e-266
9.99867026786e-266
9.99867026788e-266
9.9986702679e-266
9.99867026799e-266
9.99867027232e-266
9.99867051857e-266
9.99868456302e-266
9.99945258509e-266
1.00418622268e-265
1.05851346875e-265
8.27905190606e-41
1.07237821334e-06
0.0569121441657
0.301642339755
0.449958166962
0.517091930587
0.543886267911
0.553548936097
0.55658272249
0.557531194407
0.557922276998
0.558204456708
0.558465292235
0.558723359326
0.558981796849
0.55929856599
0.559563153231
0.559832038929
0.560106427981
0.560387162923
0.560675284041
0.560971706283
0.561277132778
0.561592963258
0.561919984261
0.56225867876
0.562610351935
0.562973910762
0.563349060593
0.563734624455
0.564127958511
0.564528937637
0.564935240943
0.565344600937
0.56575364611
0.566158427273
0.566554944952
0.566937466245
0.567303352304
0.567648272305
0.567967875411
0.568258632716
0.568515969149
0.568736552306
0.56891755873
0.5690567535
0.569152935755
0.569350025716
9.998670259e-266
9.99867025901e-266
9.99867025902e-266
9.99867025904e-266
9.99867025905e-266
9.99867025906e-266
9.99867025907e-266
9.99867025909e-266
9.9986702591e-266
9.99867025911e-266
9.99867025912e-266
9.99867025914e-266
9.99867025915e-266
9.99867025916e-266
9.99867025918e-266
9.99867025959e-266
9.99867028259e-266
9.9986716044e-266
9.99874540185e-266
1.00028845904e-265
1.01147709103e-265
1.78733653001e-99
2.99374509633e-20
0.000105915025161
0.167306764203
0.378137753988
0.48710924151
0.533093538339
0.550749181389
0.556581519462
0.558234813311
0.558786776849
0.559034048525
0.559233948112
0.559428152792
0.559682410796
0.559887493815
0.560101841591
0.560325093608
0.560557766271
0.560800533546
0.561053746192
0.561318548428
0.561595729768
0.561885927673
0.56218960108
0.562507982209
0.562840133373
0.563185853453
0.563544575329
0.563913693305
0.564293453966
0.564682284724
0.565078204282
0.565479134631
0.565881387814
0.566281649649
0.56667508276
0.567058456459
0.567428427059
0.567780895038
0.568112357312
0.568418413426
0.56869531887
0.568939697438
0.569148574143
0.569319422039
0.569449979216
0.569539945561
0.569707265891
9.99867025361e-266
9.99867025362e-266
9.99867025362e-266
9.99867025363e-266
9.99867025364e-266
9.99867025365e-266
9.99867025366e-266
9.99867025367e-266
9.99867025368e-266
9.99867025369e-266
9.9986702537e-266
9.99867025371e-266
9.99867025371e-266
9.99867025372e-266
9.99867025377e-266
9.99867025573e-266
9.99867036813e-266
9.99867683009e-266
9.99903397922e-266
1.00191307075e-265
1.03359205634e-265
4.44909195279e-63
1.19473870875e-08
0.012387043472
0.258694415983
0.429694962382
0.509450613176
0.541722889456
0.553500148837
0.557214297917
0.558256405704
0.558617557566
0.558845953821
0.5590493857
0.559249901342
0.559509850505
0.559719205626
0.55993660809
0.560162324477
0.560397157305
0.560642131891
0.560898146386
0.56116586196
0.56144651118
0.561740736043
0.562048917388
0.562371708541
0.562709016432
0.563059886355
0.563423600813
0.563798044443
0.564181520084
0.564573304141
0.564970950709
0.565372452113
0.56577405977
0.566172240637
0.566562969672
0.566941469686
0.567305458467
0.567651153345
0.5679747418
0.568273048912
0.568542088243
0.568778856536
0.568980797374
0.569145772214
0.569272197172
0.569359206468
0.569509982297
9.99867024988e-266
9.99867024988e-266
9.99867024989e-266
9.9986702499e-266
9.9986702499e-266
9.99867024991e-266
9.99867024992e-266
9.99867024993e-266
9.99867024993e-266
9.99867024994e-266
9.99867024995e-266
9.99867024995e-266
9.99867024996e-266
9.99867024997e-266
9.99867025008e-266
9.99867025631e-266
9.99867061167e-266
9.99869087314e-266
9.99979954471e-266
1.00605983918e-265
1.07891715216e-265
2.52189897392e-29
5.35465421653e-06
0.0892681654366
0.325984367905
0.461931199866
0.522029304734
0.545524419196
0.553752565528
0.556221127766
0.55702693382
0.557389664668
0.557669872396
0.557931347792
0.55818817593
0.558444188806
0.558757801492
0.559019712151
0.559288153222
0.559563223735
0.559845062543
0.560136093221
0.560437572198
0.560750587974
0.561075496079
0.561412869492
0.561763121732
0.562126034123
0.562501664607
0.562888877173
0.563286024939
0.563691439636
0.56410166157
0.564515978761
0.564931631966
0.56534556755
0.565754299365
0.566153911332
0.566540966579
0.56691045451
0.567259806852
0.567585677469
0.567884439269
0.568153199496
0.568389459058
0.568590508877
0.568754545195
0.56888021583
0.56896672087
0.569109391624
9.99867024714e-266
9.99867024715e-266
9.99867024715e-266
9.99867024716e-266
9.99867024716e-266
9.99867024717e-266
9.99867024717e-266
9.99867024718e-266
9.99867024719e-266
9.99867024719e-266
9.9986702472e-266
9.9986702472e-266
9.99867024721e-266
9.99867024722e-266
9.99867024761e-266
9.99867026994e-266
9.99867155557e-266
9.99874352304e-266
1.0002783162e-265
1.01140273162e-265
1.72404293265e-99
2.11194449072e-20
9.88807380761e-05
0.16405620598
0.373984756921
0.482795916547
0.528821395776
0.546442279111
0.552386529775
0.554189202322
0.554920996227
0.555349068759
0.555720531876
0.556074501799
0.556420281552
0.556761221107
0.557097687355
0.557433629851
0.557770022887
0.558165084798
0.558510311233
0.558863242491
0.559224265934
0.559594127332
0.559972213197
0.560360584992
0.560759413255
0.561168154774
0.561586034341
0.562012351148
0.562445761302
0.562886437267
0.563331384864
0.563778235276
0.5642233452
0.564608242966
0.565040062154
0.565459278026
0.565864256884
0.566251246409
0.566616276783
0.566954272584
0.567262089192
0.567537730666
0.567779068902
0.567984136119
0.568151521229
0.568280008133
0.568368694271
0.568506799939
9.99867024505e-266
9.99867024506e-266
9.99867024506e-266
9.99867024507e-266
9.99867024507e-266
9.99867024508e-266
9.99867024508e-266
9.99867024509e-266
9.99867024509e-266
9.9986702451e-266
9.9986702451e-266
9.99867024511e-266
9.99867024511e-266
9.99867024514e-266
9.99867024635e-266
9.99867031643e-266
9.99867437444e-266
9.99890053593e-266
1.00117032135e-265
1.02384597645e-265
2.81987020052e-64
5.28559874192e-12
0.0014528917075
0.227608911072
0.408871340935
0.496183097296
0.532121983911
0.545530766291
0.549948542493
0.551422597072
0.552164904742
0.552685311476
0.553164152575
0.553625535831
0.554075650857
0.554515912214
0.554950334633
0.555380652611
0.555808865123
0.556236777174
0.556666415446
0.557097640249
0.557533008396
0.557974386542
0.558422987265
0.558879437828
0.559343464262
0.559814275584
0.560290560053
0.560772558056
0.561258575843
0.561746705361
0.562235795828
0.562723998128
0.563208849957
0.563686020874
0.564151280893
0.564600276548
0.565031347836
0.565441132035
0.565826965533
0.566184520093
0.566510497543
0.566802133529
0.567056414402
0.567271377702
0.56744623729
0.567579816651
0.567671590791
0.567806641414
9.99867024342e-266
9.99867024342e-266
9.99867024343e-266
9.99867024343e-266
9.99867024344e-266
9.99867024344e-266
9.99867024344e-266
9.99867024345e-266
9.99867024345e-266
9.99867024346e-266
9.99867024346e-266
9.99867024346e-266
9.99867024347e-266
9.99867024353e-266
9.99867024695e-266
9.99867044245e-266
9.99868162825e-266
9.99929619443e-266
1.00334569609e-265
1.04969017635e-265
1.17153317747e-42
3.41268528937e-07
0.0381911948129
0.280992546917
0.434343395621
0.504642659892
0.533032192002
0.543397188494
0.546846937553
0.548092470248
0.548896065811
0.549525130589
0.550117885109
0.550691924274
0.551252878398
0.551802762827
0.552344156969
0.552879526212
0.553410620443
0.553938698535
0.554463458021
0.5549881896
0.55551467438
0.556044219376
0.556577483739
0.557113445188
0.557651328239
0.558193341164
0.558739916146
0.559289542893
0.559840137879
0.560387553265
0.560932197197
0.561471685476
0.562003074442
0.562524947877
0.563034197808
0.563467753382
0.56393500971
0.564376673611
0.564789107822
0.565170456621
0.565517415064
0.565827583937
0.566098669676
0.566328263003
0.566514713394
0.566656810455
0.566754107142
0.566888999686
9.99867024211e-266
9.99867024211e-266
9.99867024211e-266
9.99867024212e-266
9.99867024212e-266
9.99867024212e-266
9.99867024213e-266
9.99867024213e-266
9.99867024214e-266
9.99867024214e-266
9.99867024214e-266
9.99867024215e-266
9.99867024215e-266
9.99867024229e-266
9.99867024981e-266
9.998670676e-266
9.99869476087e-266
1.00000026761e-265
1.00705838856e-265
1.09028513502e-265
1.3597989492e-26
8.90023203573e-06
0.0964931283405
0.324470245854
0.453109991327
0.509679113511
0.532076644984
0.540230106004
0.543007957194
0.544209124002
0.545115591817
0.545876826087
0.546606384505
0.547313026982
0.54800122938
0.548675965657
0.549339251339
0.549991236783
0.550632879472
0.55126806624
0.551898136878
0.55252512841
0.553151466336
0.553777575237
0.55440438253
0.554974493895
0.555601541764
0.556229010584
0.556856908468
0.557481102101
0.558101140723
0.558716338827
0.559323991528
0.559923359894
0.560513299789
0.561088827733
0.561644516127
0.562175249486
0.562681066291
0.563160302488
0.563609645582
0.564023317317
0.56439680786
0.564726903552
0.565015117708
0.565260980479
0.565461340541
0.565613399613
0.565716284349
0.565849604053
9.99867024103e-266
9.99867024104e-266
9.99867024104e-266
9.99867024104e-266
9.99867024105e-266
9.99867024105e-266
9.99867024105e-266
9.99867024106e-266
9.99867024106e-266
9.99867024106e-266
9.99867024107e-266
9.99867024107e-266
9.99867024108e-266
9.9986702415e-266
9.99867026524e-266
9.9986716236e-266
9.99874720822e-266
1.00029595839e-265
1.01178330764e-265
1.76694216796e-99
2.25085173648e-20
9.14091758189e-05
0.155597438448
0.359974184899
0.466426752006
0.512016453318
0.529831934618
0.536254782549
0.538595698765
0.539841449766
0.540828187521
0.541743629697
0.542625016701
0.543476574896
0.544306005796
0.545115454641
0.54590911503
0.546689678759
0.547455975376
0.54821070111
0.548958128216
0.549699527822
0.550433062926
0.551161688345
0.551886654337
0.552608409097
0.553328119756
0.554045445984
0.554757581089
0.555463863959
0.556164513532
0.556857382109
0.557538353749
0.558205581185
0.558802358033
0.559434305952
0.560042518313
0.560623841688
0.561175396037
0.561694990112
0.562180487205
0.562627248087
0.563031416796
0.563389788561
0.563700631155
0.563963847525
0.564177827275
0.564341003362
0.564452555623
0.564589236331
9.99867024015e-266
9.99867024015e-266
9.99867024015e-266
9.99867024015e-266
9.99867024016e-266
9.99867024016e-266
9.99867024016e-266
9.99867024017e-266
9.99867024017e-266
9.99867024017e-266
9.99867024017e-266
9.99867024018e-266
9.9986702402e-266
9.99867024136e-266
9.99867030742e-266
9.99867408854e-266
9.99888291497e-266
1.00105806757e-265
1.02236757733e-265
5.41934222933e-99
1.19150944298e-13
0.000888740813527
0.210818440935
0.389010456125
0.476077239806
0.512342123373
0.526455203943
0.531603788781
0.53373253524
0.535063334054
0.536205203358
0.537282110484
0.538321194087
0.539333195349
0.54031517143
0.541270915124
0.542208248492
0.543124990064
0.544022774165
0.54490520148
0.545774846139
0.546635457533
0.547485571715
0.548325210133
0.549160260812
0.549928426519
0.550750164467
0.551564240217
0.552366728303
0.553160224543
0.553946240036
0.554719263355
0.555474162958
0.556212047557
0.556929405426
0.557623802633
0.558293163096
0.558932156056
0.559536127014
0.560041491812
0.560568535274
0.561051464643
0.561488392682
0.56187650376
0.56221275506
0.562495416673
0.562724614126
0.562899730032
0.563020366776
0.56316037193
9.9986702394e-266
9.9986702394e-266
9.9986702394e-266
9.99867023941e-266
9.99867023941e-266
9.99867023941e-266
9.99867023941e-266
9.99867023942e-266
9.99867023942e-266
9.99867023942e-266
9.99867023942e-266
9.99867023943e-266
9.99867023949e-266
9.99867024289e-266
9.99867043575e-266
9.99868135946e-266
9.99927630673e-266
1.00319878947e-265
1.04832291844e-265
8.83398542236e-47
2.02163074263e-07
0.0267348413924
0.261331677021
0.412168692764
0.482332489578
0.51127542448
0.522343166038
0.526463126843
0.528481115987
0.529923869246
0.531230972032
0.532484943173
0.533692827855
0.534867907898
0.536009132241
0.537118505482
0.538200999764
0.539263334355
0.54024756106
0.541267019297
0.542267932347
0.543254104811
0.544228393286
0.545187033005
0.546133693879
0.54707193754
0.547996630396
0.548908170814
0.549806591656
0.550694206631
0.551509523673
0.552366724559
0.553204846038
0.554018547802
0.554806669079
0.555566340617
0.556294597603
0.556989451167
0.557646614278
0.558261261336
0.558830439724
0.559352181812
0.55982421652
0.560181996121
0.560545672751
0.560850754751
0.561097951556
0.561286788225
0.561417109321
0.561560874768
9.99867023876e-266
9.99867023877e-266
9.99867023877e-266
9.99867023877e-266
9.99867023877e-266
9.99867023877e-266
9.99867023878e-266
9.99867023878e-266
9.99867023878e-266
9.99867023878e-266
9.99867023879e-266
9.99867023879e-266
9.99867023894e-266
9.99867024709e-266
9.99867070327e-266
9.99869615191e-266
1.00000620098e-265
1.00726452249e-265
1.09238302316e-265
1.20714936752e-26
7.47645102023e-06
0.0853866037535
0.304848056452
0.429946969652
0.485864899551
0.508522559274
0.517322376378
0.5207888917
0.522814214045
0.524420261423
0.525914903348
0.527350852034
0.528743322856
0.530034588392
0.531346963227
0.532627229942
0.533871058419
0.535084323727
0.536272624672
0.537436796494
0.538573870145
0.539694027802
0.540795459029
0.541821103514
0.542887543625
0.543936997697
0.544971230428
0.545991697899
0.546992258278
0.547974063317
0.548936024843
0.549879041427
0.550801598061
0.551632313681
0.552495845869
0.553326588936
0.554120059964
0.554872689613
0.555582750359
0.556246169236
0.556860219143
0.557423170232
0.557930992548
0.558381318924
0.558770578191
0.559100068963
0.559305344765
0.559508068262
0.559645657368
0.559788680379
9.99867023822e-266
9.99867023822e-266
9.99867023822e-266
9.99867023822e-266
9.99867023823e-266
9.99867023823e-266
9.99867023823e-266
9.99867023823e-266
9.99867023823e-266
9.99867023824e-266
9.99867023824e-266
9.99867023825e-266
9.99867023877e-266
9.99867026781e-266
9.9986719064e-266
9.99876176598e-266
1.00037002836e-265
1.01299305643e-265
2.05463154754e-99
5.56270565735e-20
9.67325198984e-05
0.147472205228
0.341803057394
0.442932184043
0.486814916895
0.504632104326
0.511562819505
0.514727558536
0.516785883575
0.518586894347
0.520230764025
0.521868985597
0.523450552513
0.524987336717
0.526477196126
0.52792772055
0.529338088445
0.53071238558
0.531997767093
0.533311651822
0.534600920858
0.535859062673
0.537096601808
0.538308809763
0.539496968268
0.540665182245
0.541756021282
0.542883427052
0.543989151726
0.545074542718
0.546131241311
0.547161987279
0.548164497
0.549140413176
0.550018203153
0.550917570877
0.551774387758
0.552587869738
0.553356664606
0.554074529148
0.554734607967
0.555336539067
0.555879377909
0.556360803373
0.556778209651
0.55712881512
0.557411961141
0.557629199899
0.557714516167
0.557924617423
9.99867023775e-266
9.99867023775e-266
9.99867023775e-266
9.99867023775e-266
9.99867023775e-266
9.99867023776e-266
9.99867023776e-266
9.99867023776e-266
9.99867023776e-266
9.99867023776e-266
9.99867023777e-266
9.9986702378e-266
9.99867023956e-266
9.99867033899e-266
9.99867592715e-266
9.99897860452e-266
1.00155312713e-265
1.02917446302e-265
1.75000884313e-63
1.23023283994e-10
0.0014024817818
0.20757967585
0.371728989065
0.451856888407
0.485887555299
0.499721412089
0.505315320102
0.508202000341
0.510408622137
0.512415403265
0.514332712869
0.516177580492
0.51796624414
0.519694899972
0.521317825737
0.522945081737
0.524527077876
0.526071436545
0.527573126423
0.529039196965
0.530413135468
0.531822153904
0.533195385447
0.534539395978
0.535860508685
0.537155256528
0.538423104691
0.539602583562
0.540819952824
0.542003955895
0.54315722854
0.544280127014
0.54537315306
0.546426714428
0.547441273023
0.548350791027
0.549276543891
0.550151618267
0.550976052963
0.551744364419
0.552451119487
0.553097357021
0.553678756397
0.554192184253
0.554635671077
0.555008451159
0.555310885137
0.555543514304
0.555639021345
0.555850964721
9.99867023733e-266
9.99867023734e-266
9.99867023734e-266
9.99867023734e-266
9.99867023734e-266
9.99867023734e-266
9.99867023734e-266
9.99867023735e-266
9.99867023735e-266
9.99867023735e-266
9.99867023735e-266
9.99867023746e-266
9.99867024318e-266
9.9986705616e-266
9.99868824157e-266
9.99963310694e-266
1.00500197875e-265
1.06780472745e-265
2.21937203307e-34
1.09771134946e-06
0.0425905312185
0.261014862513
0.395209673591
0.45724686107
0.483355836876
0.49395624014
0.49861704563
0.501455032773
0.503836426172
0.506070215327
0.508210542424
0.510219319787
0.512212147857
0.514143275058
0.516008787139
0.517822989165
0.519524579218
0.521238485213
0.522903665239
0.524532030201
0.526116597958
0.527670661187
0.529121096477
0.53060228699
0.532054921768
0.533472270626
0.534857647408
0.53621666321
0.537480817086
0.538772308444
0.540027566409
0.541245584233
0.542427180124
0.543565826121
0.54465848237
0.545639112795
0.546633794304
0.547570785664
0.548449485368
0.549268414926
0.550025713372
0.550716179278
0.551334866448
0.551881524708
0.552353795707
0.552752273337
0.553076828218
0.553255127378
0.553424363083
0.553576556965
9.99867023697e-266
9.99867023697e-266
9.99867023697e-266
9.99867023698e-266
9.99867023698e-266
9.99867023698e-266
9.99867023698e-266
9.99867023698e-266
9.99867023698e-266
9.99867023699e-266
9.99867023699e-266
9.99867023737e-266
9.99867025847e-266
9.9986714347e-266
9.99873556465e-266
1.0002202895e-265
1.01102733412e-265
1.16456499832e-99
7.27267223016e-22
3.4956983067e-05
0.112147820013
0.306163210544
0.412159756345
0.459388318123
0.479167331187
0.487441883565
0.49152841067
0.494442532632
0.497040336077
0.499450508472
0.501826241283
0.504109888613
0.506322865392
0.508399614452
0.510470738264
0.512477619684
0.514419795967
0.516309101907
0.518084206587
0.519870056378
0.521608755908
0.523309207172
0.524966219622
0.526520679781
0.528106478723
0.529649194541
0.531154539293
0.532630885397
0.533996337042
0.535396375376
0.536752160305
0.538064401691
0.539334071805
0.540559878703
0.541732412189
0.542784300935
0.543847998055
0.544849964056
0.545790448961
0.546665393652
0.547467083209
0.548197524784
0.548853278218
0.549434236814
0.54986917183
0.550292245989
0.550633562443
0.550893947142
0.551073461575
0.551228292975
9.99867023665e-266
9.99867023665e-266
9.99867023665e-266
9.99867023665e-266
9.99867023665e-266
9.99867023666e-266
9.99867023666e-266
9.99867023666e-266
9.99867023666e-266
9.99867023666e-266
9.99867023669e-266
9.99867023822e-266
9.99867032334e-266
9.99867505445e-266
9.99892938339e-266
1.00127218955e-265
1.02542430748e-265
8.64332099609e-65
3.73453394368e-13
0.000600487140089
0.180821725756
0.342784082246
0.423499680451
0.458810835079
0.473662967717
0.480280641537
0.484145920213
0.487224876665
0.490011753234
0.492727616375
0.495334641315
0.497794678411
0.500220867304
0.502569348861
0.504835908027
0.506973951467
0.509108978721
0.511173954835
0.513187149071
0.515075670696
0.516977603551
0.518827203413
0.520627076052
0.522318426162
0.524037484445
0.52570546338
0.527332538878
0.528919724986
0.530399195557
0.531899604834
0.533352454564
0.534763091752
0.536119499449
0.537425433652
0.538607587089
0.539801174056
0.540934221493
0.541998717004
0.542995382735
0.54392111295
0.54477188789
0.545547375469
0.546175776697
0.546791713165
0.547322701828
0.547768617278
0.548129588272
0.548405201274
0.548595627714
0.548753582566
9.99867023636e-266
9.99867023636e-266
9.99867023636e-266
9.99867023637e-266
9.99867023637e-266
9.99867023637e-266
9.99867023637e-266
9.99867023637e-266
9.99867023637e-266
9.99867023638e-266
9.9986702365e-266
9.99867024301e-266
9.99867059972e-266
9.99869008831e-266
9.9997161736e-266
1.00533628842e-265
1.07147988131e-265
3.04055903017e-34
1.01020959866e-06
0.0348919716052
0.24157973841
0.370108213037
0.430192751859
0.456134639252
0.467329218265
0.472786038586
0.476537850374
0.479821593409
0.482918573628
0.485828427963
0.488680242166
0.491421246808
0.494008949783
0.496566591831
0.499039050257
0.501365266259
0.503685701378
0.50592861853
0.508111329374
0.510162982011
0.512221516099
0.514227703392
0.516176509199
0.518010597492
0.519859548381
0.521655643896
0.52340762803
0.525108304822
0.526693990633
0.528301389345
0.529852003329
0.53135030001
0.532795439246
0.534113747533
0.535441736378
0.536703152427
0.537901413158
0.539029247053
0.540082103929
0.54105960572
0.541884155703
0.54270154544
0.543433515985
0.544079639568
0.544638307331
0.545109351748
0.545490788203
0.545782378464
0.545984426606
0.546146439389
9.9986702361e-266
9.99867023611e-266
9.99867023611e-266
9.99867023611e-266
9.99867023611e-266
9.99867023611e-266
9.99867023611e-266
9.99867023611e-266
9.99867023612e-266
9.99867023613e-266
9.99867023671e-266
9.9986702684e-266
9.9986720023e-266
9.99876451041e-266
1.00036830059e-265
1.01331279489e-265
1.80588825433e-99
1.27280180243e-20
5.19510609923e-05
0.111859156938
0.29202724104
0.388676511597
0.432486875478
0.451488481179
0.460086819023
0.465006589973
0.468852742001
0.472373845895
0.475670937145
0.478889433007
0.481928723913
0.484910448203
0.487785514297
0.490493118097
0.493168204513
0.495748592148
0.498188222364
0.500608532721
0.502960430899
0.505175065521
0.50738879024
0.50953870483
0.511635890385
0.513601237489
0.515586555946
0.517511254167
0.519383815067
0.521132330795
0.522899527591
0.524608087512
0.526256183659
0.527847045267
0.529308342899
0.530775601501
0.532175219251
0.533507065795
0.534767451995
0.535954419828
0.536987946824
0.538016325375
0.538961696242
0.539818474473
0.540586655912
0.541264013661
0.54184906945
0.542340851339
0.542739034751
0.543044029883
0.543256340904
0.543421184383
9.99867023587e-266
9.99867023587e-266
9.99867023588e-266
9.99867023588e-266
9.99867023588e-266
9.99867023588e-266
9.99867023588e-266
9.99867023588e-266
9.99867023588e-266
9.99867023594e-266
9.99867023895e-266
9.99867040201e-266
9.99867924034e-266
9.99914263075e-266
1.00235174124e-265
1.03942032264e-265
4.55172017934e-63
4.22806805735e-09
0.00184650830873
0.186746176527
0.329844074903
0.400230584619
0.431512999706
0.44544102312
0.452420543874
0.457073438924
0.461048170772
0.464832487515
0.468389709798
0.471862211562
0.47519439935
0.478348981574
0.481439854927
0.484359831535
0.487241867213
0.490020146978
0.49264772959
0.495244488411
0.497759163502
0.500132131295
0.502504349031
0.504802016664
0.506963701344
0.509139276781
0.511246524535
0.513294345741
0.515212671572
0.517142890606
0.5190111464
0.520822655235
0.522570685552
0.524180365681
0.525798593022
0.527344213168
0.528816833672
0.530221923094
0.531466550464
0.532711688761
0.53387237941
0.53494853551
0.535933502621
0.536827980606
0.537630575348
0.538340286612
0.538872746543
0.539387828348
0.539804220219
0.540124203529
0.540348090083
0.540516828241
9.99867023566e-266
9.99867023566e-266
9.99867023567e-266
9.99867023567e-266
9.99867023567e-266
9.99867023567e-266
9.99867023567e-266
9.99867023567e-266
9.99867023568e-266
9.99867023596e-266
9.99867025102e-266
9.99867107265e-266
9.99871535582e-266
1.00010455961e-265
1.00955174795e-265
4.16248712898e-100
8.56948576505e-25
8.95397253901e-06
0.0644846148899
0.249342770885
0.35615593103
0.405910596077
0.428104712709
0.43849389141
0.444417981158
0.449084628335
0.453340968987
0.457322739457
0.46119554478
0.464847476684
0.468421275086
0.471792604805
0.475101606748
0.478221391381
0.481299250921
0.484264752742
0.487066016295
0.489845026437
0.492529558823
0.495066286458
0.497586727665
0.500028568494
0.502330120647
0.504632497652
0.506864651731
0.508959332427
0.511062988256
0.51309850886
0.515069236855
0.516897914685
0.518736671626
0.520504746152
0.522201837214
0.523829907061
0.525295583279
0.526764197898
0.52815030592
0.529450909239
0.530662885626
0.531785281675
0.532733347333
0.533666564302
0.534502278356
0.535238857535
0.535875460775
0.536410749193
0.536844838979
0.53717872723
0.537413088627
0.537584412791
9.99867023547e-266
9.99867023547e-266
9.99867023547e-266
9.99867023548e-266
9.99867023548e-266
9.99867023548e-266
9.99867023548e-266
9.99867023548e-266
9.99867023552e-266
9.99867023745e-266
9.99867034134e-266
9.99867592387e-266
9.9989667483e-266
1.00141730264e-265
1.02746034293e-265
1.66753118937e-64
7.96954128574e-14
0.000370453132775
0.14848958107
0.296629413481
0.372234512233
0.406796135334
0.422583541844
0.430770175405
0.436330775024
0.441156284428
0.445621319739
0.449878286208
0.454007168707
0.457900516298
0.461698609722
0.465286172343
0.468804507596
0.472119294359
0.475386984716
0.478466674313
0.48150612556
0.484444958824
0.487221702303
0.489975331281
0.492643388648
0.495157804092
0.497667297101
0.50010355491
0.502383344608
0.50466525647
0.506873610492
0.509012814275
0.511005247318
0.513002494008
0.514925325802
0.516775056724
0.518466807112
0.520164457226
0.521780008134
0.52330804894
0.524750961856
0.526017719416
0.527279834988
0.528444830925
0.529512546864
0.530480922261
0.531348267277
0.532113645924
0.532776716537
0.533248950446
0.533703650338
0.534052181453
0.534297833747
0.534472832505
9.9986702353e-266
9.9986702353e-266
9.9986702353e-266
9.9986702353e-266
9.9986702353e-266
9.9986702353e-266
9.99867023531e-266
9.99867023531e-266
9.99867023554e-266
9.99867024769e-266
9.99867088625e-266
9.99870431021e-266
1.00003954121e-265
1.00835960019e-265
1.10309770216e-265
5.94207695555e-27
3.24413172405e-06
0.0399619921442
0.220292197238
0.328950180659
0.380742802668
0.404400066428
0.415924276661
0.422830196149
0.428267536209
0.43330411379
0.438023028415
0.442531201146
0.446908249056
0.451043751467
0.455072322287
0.458868059537
0.462584826309
0.466088725443
0.469532893505
0.472783965145
0.475991386766
0.479019475584
0.482014372492
0.484911756344
0.487645645296
0.490364014322
0.492997386161
0.49547197346
0.497945921182
0.500341524195
0.502583708182
0.50482737871
0.50699011972
0.509075142372
0.510998104861
0.512925655434
0.514769202573
0.516528612985
0.518203725544
0.519703504251
0.521200184913
0.522601009095
0.523904775711
0.525109136156
0.526214486705
0.527125219487
0.528025089285
0.528816519872
0.529500606862
0.530076432592
0.530544612774
0.530906741287
0.531163915459
0.531343259913
9.99867023514e-266
9.99867023514e-266
9.99867023514e-266
9.99867023514e-266
9.99867023514e-266
9.99867023514e-266
9.99867023515e-266
9.99867023518e-266
9.99867023718e-266
9.99867034229e-266
9.99867587966e-266
9.99895904813e-266
1.00134442683e-265
1.02652345021e-265
5.19551313237e-99
3.53631105602e-15
0.000252580291189
0.130184840509
0.27372013118
0.348243628549
0.38291688977
0.399440509875
0.408419323799
0.414798267928
0.420358003
0.425636766148
0.430606672555
0.435350923362
0.439959474477
0.444310026718
0.448549808203
0.45255089749
0.456393974618
0.460162516854
0.463703696227
0.467189481681
0.470552690567
0.473726107525
0.476864187069
0.479820216811
0.48275655402
0.485602952821
0.488272458325
0.490938530109
0.493518523143
0.495934509726
0.498355333706
0.500689763982
0.502853073169
0.505024141084
0.507110654803
0.509113276267
0.510941354701
0.512767152924
0.514498596904
0.516137293763
0.517681553468
0.519034672704
0.520381307054
0.521620573864
0.52275360933
0.523784396941
0.524708307241
0.525525794797
0.526139740075
0.526736035057
0.527219828565
0.527594883758
0.527862781735
0.528046357245
9.99867023499e-266
9.99867023499e-266
9.99867023499e-266
9.99867023499e-266
9.998670235e-266
9.998670235e-266
9.998670235e-266
9.9986702353e-266
9.99867025071e-266
9.99867105872e-266
9.99871332869e-266
1.00008691303e-265
1.00952148501e-265
2.31942332027e-100
5.26261462666e-26
4.26888551186e-06
0.0378604292184
0.206946941385
0.308847333025
0.357984666893
0.381151854398
0.393028412446
0.400685653565
0.406936725204
0.412702041877
0.418218364253
0.423419444471
0.428391996693
0.433210677006
0.437764373648
0.442131423037
0.446383137394
0.450401329866
0.454331420153
0.458044347676
0.461694995045
0.465132012785
0.468526721915
0.471719041786
0.474880233525
0.477936248674
0.480810325363
0.483674255773
0.486359824764
0.489040491067
0.49163341899
0.494047732775
0.49646801399
0.498798895404
0.501043973258
0.503106731529
0.505174941152
0.507150900877
0.509035058821
0.510730352552
0.512423603234
0.514015115458
0.515499038319
0.516881187285
0.518156753387
0.519225648086
0.520287911809
0.521240107872