/*--------------------------------*- C++ -*----------------------------------*\
| =========                 |                                                 |
| \\      /  F ield         | foam-extend: Open Source CFD                    |
|  \\    /   O peration     | Version:     4.1                                |
|   \\  /    A nd           | Web:         http://www.foam-extend.org         |
|    \\/     M anipulation  |                                                 |
\*---------------------------------------------------------------------------*/
FoamFile
{
    version     2.0;
    format      ascii;
    class       volScalarField;
    location    "0.0009";
    object      O;
}
// * * * * * * * * * * * * * * * * * * * * * * * * * * * * * * * * * * * * * //

dimensions      [0 0 0 0 0 0 0];

internalField   nonuniform List<scalar> 
8400
(
7.23199835401e-54
7.23199835404e-54
7.23199835407e-54
7.2319983541e-54
7.23199835413e-54
7.23199835416e-54
7.23199835419e-54
7.23199835422e-54
7.23199835425e-54
7.23199835428e-54
7.2319983543e-54
7.23199835433e-54
7.23199835436e-54
7.23199835438e-54
7.23199835441e-54
7.23199835444e-54
7.23199835498e-54
7.23199838453e-54
7.23200007412e-54
7.23209321641e-54
7.23732236914e-54
7.33811564171e-54
1.22461421021e-18
0.198655119081
0.232118664578
0.189898038482
0.142656280545
0.113402415463
0.0994622617502
0.0937296267193
0.0917168882919
0.0910544631003
0.090794742682
0.0906397879896
0.090517135786
0.0904078862261
0.0903066219075
0.0902104143466
0.090117471541
0.0900263495283
0.0899361422886
0.0898455450581
0.0897535547471
0.0896593863824
0.0895622748027
0.089461544859
0.0893562046703
0.0892671360778
0.0891520182473
0.0890321893968
0.0889072001777
0.088777047413
0.0886420872616
0.0885028654168
0.0883601568068
0.0882144286471
0.0880671911856
0.0879199481973
0.0877741949325
0.0876320119371
0.0874947719908
0.0873643122038
0.087242490729
0.0871307789219
0.0870310954332
0.086945095652
0.0868740336091
0.0868189606951
0.0867804761578
0.0866838965085
7.23199834416e-54
7.23199834417e-54
7.23199834418e-54
7.2319983442e-54
7.23199834421e-54
7.23199834422e-54
7.23199834423e-54
7.23199834424e-54
7.23199834426e-54
7.23199834427e-54
7.23199834428e-54
7.23199834429e-54
7.2319983443e-54
7.23199834431e-54
7.23199834432e-54
7.23199834437e-54
7.23199834682e-54
7.23199848589e-54
7.23200641748e-54
7.23244015743e-54
7.25639097419e-54
7.56320373281e-54
2.46516568719e-05
0.23128580638
0.221417544123
0.169319905391
0.127897801858
0.105229999545
0.095237868906
0.0914672561038
0.0902670905904
0.0898919732405
0.0897383290084
0.0896287122701
0.0895276956841
0.0894279306223
0.0893282008393
0.0892065574488
0.0891047845336
0.0890012664979
0.0888957676752
0.0887879753037
0.088677497883
0.0885639100045
0.0884467998717
0.0883258618976
0.0882007952578
0.0880714158682
0.0879370355832
0.087798246102
0.0876551573141
0.0875081613414
0.0873580470918
0.0872051077657
0.0870502218305
0.0868940155646
0.0867378463095
0.0865833575028
0.0864320437005
0.0862858395576
0.0861460116333
0.0860142054835
0.0858920747904
0.0857807427134
0.0856821990911
0.0855977107067
0.0855283510829
0.0854749693705
0.0854380106448
0.0853586901024
7.2319983393e-54
7.2319983393e-54
7.23199833931e-54
7.23199833932e-54
7.23199833932e-54
7.23199833933e-54
7.23199833934e-54
7.23199833935e-54
7.23199833935e-54
7.23199833936e-54
7.23199833937e-54
7.23199833937e-54
7.23199833938e-54
7.23199833939e-54
7.2319983394e-54
7.23199833963e-54
7.23199835262e-54
7.23199909911e-54
7.23204077617e-54
7.23437838013e-54
7.29756610439e-54
4.6451887804e-19
0.0854343922821
0.231931621556
0.19966355713
0.149225924034
0.115739766439
0.0993599440712
0.092596980577
0.0902927619908
0.0896330246961
0.0894129290382
0.0893144294868
0.0892353924248
0.0891590222422
0.0890601580174
0.088980015442
0.0888965083275
0.0888097929101
0.0887196733162
0.0886258917311
0.0885281001362
0.0884260291349
0.0883194166538
0.0882080156659
0.0880916445788
0.0879696586841
0.0878425791291
0.0877104752953
0.0875735551994
0.0874325036829
0.0872874826021
0.087139108123
0.0869880525516
0.0868349150559
0.0866813480585
0.0865286044732
0.0863783533457
0.0862318976449
0.0860905898444
0.0859559860131
0.0858291791719
0.0857120359129
0.0856060506723
0.0855125084954
0.0854325416021
0.0853670955889
0.085316978315
0.0852823871655
0.0852150280612
7.23199833625e-54
7.23199833626e-54
7.23199833626e-54
7.23199833627e-54
7.23199833627e-54
7.23199833628e-54
7.23199833628e-54
7.23199833629e-54
7.23199833629e-54
7.2319983363e-54
7.2319983363e-54
7.23199833631e-54
7.23199833631e-54
7.23199833632e-54
7.23199833634e-54
7.23199833745e-54
7.23199840093e-54
7.23200205032e-54
7.23220375005e-54
7.24355336387e-54
7.42246022302e-54
7.85055514103e-11
0.230253391108
0.229993116687
0.179623972176
0.134194708805
0.107982008363
0.0960884186223
0.0915081266664
0.0900365978783
0.0896208602925
0.0894765655509
0.0893859894798
0.0893058056359
0.0892271363076
0.0891262777578
0.0890446757478
0.0889601418935
0.088872640498
0.0887818667676
0.0886874270499
0.0885889275392
0.0884859414418
0.0883782086516
0.0882654781105
0.0881475994493
0.0880242301968
0.087895388448
0.0877615214419
0.0876228931912
0.087480151295
0.0873339112248
0.0871845983896
0.0870331352369
0.086879990533
0.0867268027374
0.0865749760736
0.0864259811762
0.0862814712324
0.0861425211136
0.0860105661488
0.0858870203524
0.0857729231163
0.0856700234185
0.0855794627637
0.0855022129992
0.0854390871138
0.0853906869243
0.0853573343178
0.0852967534424
7.23199833414e-54
7.23199833415e-54
7.23199833415e-54
7.23199833416e-54
7.23199833416e-54
7.23199833416e-54
7.23199833417e-54
7.23199833417e-54
7.23199833418e-54
7.23199833418e-54
7.23199833418e-54
7.23199833419e-54
7.23199833419e-54
7.2319983342e-54
7.23199833426e-54
7.23199833778e-54
7.23199853847e-54
7.23200998112e-54
7.23263610265e-54
7.26697221087e-54
7.67843339827e-54
0.00271820720951
0.231540381456
0.215224284219
0.163184634206
0.12407096145
0.103434242032
0.0945993404888
0.0913784147027
0.0904015298614
0.0900839315548
0.0899413224594
0.0898320605164
0.0897305146441
0.0896310511094
0.0895319644992
0.0894113198368
0.0893104562491
0.0892072858856
0.0891017556068
0.0889936545788
0.0888822366136
0.0887670167463
0.0886475736183
0.0885235744397
0.088394851212
0.088261370958
0.08812321033
0.0879802242044
0.0878328621387
0.0876818283867
0.0875277421424
0.0873716220422
0.0872139883446
0.0870559038442
0.0868983481378
0.0867426067642
0.08659037965
0.0864429606624
0.0863020064615
0.0861686888452
0.0860443367272
0.0859303347667
0.0858277257278
0.0857374299134
0.0856605853899
0.0855978745986
0.0855498103574
0.0855166916654
0.085459600694
7.2319983326e-54
7.2319983326e-54
7.23199833261e-54
7.23199833261e-54
7.23199833261e-54
7.23199833262e-54
7.23199833262e-54
7.23199833262e-54
7.23199833263e-54
7.23199833263e-54
7.23199833263e-54
7.23199833263e-54
7.23199833264e-54
7.23199833264e-54
7.23199833287e-54
7.23199834547e-54
7.23199907153e-54
7.23203971512e-54
7.23432109853e-54
7.29714616013e-54
4.47748598371e-19
0.0825365872661
0.231922026397
0.200340362797
0.150382043155
0.117175630871
0.100897986194
0.094198151397
0.0918686906303
0.0911598792366
0.0908757429156
0.0907112680682
0.0905689408808
0.0904334104639
0.0903011768525
0.0901709439925
0.0900422881526
0.0899139979962
0.0897857533457
0.0896355577439
0.0895040649058
0.089369785217
0.0892325877208
0.0890921491581
0.0889484917052
0.0888010623838
0.0886497906565
0.0884946655155
0.0883359675668
0.0881741735416
0.0880097603696
0.0878424506012
0.0876735695958
0.0875040055544
0.08733488503
0.0871886968476
0.0870246708631
0.0868653301311
0.0867111533572
0.0865638300677
0.0864248745306
0.0862960589215
0.0861786517619
0.0860735335454
0.0859815017042
0.0859032945042
0.0858394425913
0.0857903745771
0.0857564500467
0.0857012404467
7.23199833142e-54
7.23199833142e-54
7.23199833143e-54
7.23199833143e-54
7.23199833143e-54
7.23199833144e-54
7.23199833144e-54
7.23199833144e-54
7.23199833144e-54
7.23199833145e-54
7.23199833145e-54
7.23199833145e-54
7.23199833145e-54
7.23199833147e-54
7.23199833215e-54
7.23199837173e-54
7.23200066349e-54
7.23212838804e-54
7.23935869165e-54
7.36741930206e-54
4.5840961187e-12
0.225073081044
0.232082313746
0.186714565622
0.140422218505
0.112578412096
0.0996194721594
0.0944913916966
0.0927661074499
0.0921932222616
0.0919091956752
0.0917117713482
0.0915303585217
0.0913558561437
0.0911857632254
0.0910193114211
0.0908552167152
0.0906928228066
0.0905307268048
0.0903688766329
0.0902065086644
0.0900433946318
0.0898787357083
0.0897119350059
0.0895423620049
0.0893697434016
0.0891943653056
0.0890164063358
0.0888362543571
0.0886540231701
0.0884701933986
0.0882853084795
0.088100112962
0.0879151893247
0.0877313628526
0.087550478727
0.0873740444958
0.0872035678922
0.0870399039344
0.0868843220833
0.0867375676963
0.0866015548091
0.0864775671302
0.0863666513635
0.0862698422743
0.0861878878887
0.086121220216
0.0860702859264
0.0860352786788
0.0859814774443
7.2319983305e-54
7.2319983305e-54
7.2319983305e-54
7.2319983305e-54
7.23199833051e-54
7.23199833051e-54
7.23199833051e-54
7.23199833051e-54
7.23199833052e-54
7.23199833052e-54
7.23199833052e-54
7.23199833052e-54
7.23199833053e-54
7.23199833056e-54
7.23199833249e-54
7.2319984429e-54
7.23200476007e-54
7.23235183591e-54
7.2516441059e-54
7.51337424802e-54
6.23977671777e-07
0.231071871399
0.224988990039
0.174365628125
0.132749134863
0.109586053178
0.0992166466798
0.0952491909382
0.0939119251389
0.0934336722569
0.0931302446804
0.0928940540883
0.0926717141423
0.0924564301955
0.0922461663032
0.0920398551862
0.0918368694275
0.0916360167035
0.0914366953454
0.0912386421774
0.0910416902656
0.0908448189833
0.0906473226664
0.0904481482928
0.0902476853111
0.090046078312
0.0898434613808
0.0896393668162
0.0894333212098
0.0892260529993
0.0890184638922
0.0888117753198
0.0886061734296
0.0884023903586
0.0882014036986
0.0880040101724
0.0878111668717
0.087647006641
0.0874700136949
0.0873025905333
0.087146021176
0.0870012519712
0.0868695437201
0.0867517265859
0.0866486687369
0.0865613873439
0.0864905112651
0.0864365033443
0.0863995267618
0.0863460638926
7.23199832976e-54
7.23199832976e-54
7.23199832976e-54
7.23199832976e-54
7.23199832977e-54
7.23199832977e-54
7.23199832977e-54
7.23199832977e-54
7.23199832977e-54
7.23199832977e-54
7.23199832978e-54
7.23199832978e-54
7.23199832978e-54
7.23199832986e-54
7.23199833411e-54
7.2319985748e-54
7.23201217671e-54
7.23275082097e-54
7.27261151179e-54
7.7426340054e-54
0.00819124959253
0.231609882311
0.213836106697
0.163585557157
0.126860401248
0.107748246784
0.0995033209732
0.0963935506649
0.0953277864708
0.0948736429109
0.0945353654799
0.0942522185328
0.0939809758079
0.0937181842113
0.0934622018083
0.0932110655534
0.0929640258588
0.092721142016
0.092481856107
0.0922450673703
0.0920099079046
0.0917760039305
0.0915419523637
0.0913078843318
0.0910735025542
0.0908603104035
0.0906258623501
0.0903906756866
0.090155349015
0.0899209342733
0.0896878425028
0.0894565216617
0.0892276752472
0.089001969291
0.0887794763822
0.088562351889
0.0883526446343
0.0881520713916
0.0879609229114
0.0877796426224
0.0876093999732
0.0874526889063
0.0873112567252
0.0871860914668
0.0870767474884
0.0869834218299
0.0869073521571
0.0868496526859
0.0868106589252
0.0867580265143
7.23199832915e-54
7.23199832915e-54
7.23199832916e-54
7.23199832916e-54
7.23199832916e-54
7.23199832916e-54
7.23199832916e-54
7.23199832916e-54
7.23199832917e-54
7.23199832917e-54
7.23199832917e-54
7.23199832917e-54
7.23199832918e-54
7.23199832941e-54
7.23199834282e-54
7.23199910995e-54
7.23204179632e-54
7.23442073264e-54
7.29929546066e-54
4.60203090982e-19
0.0829506627334
0.231909379182
0.202094336789
0.154230685434
0.122528528826
0.106850859687
0.100267851004
0.0978342252685
0.0969479777235
0.0964841660811
0.0961197053358
0.0957822356267
0.0954574153013
0.095143234774
0.0948371343912
0.0945379996689
0.0942444892904
0.0939555793087
0.0936717710847
0.0933921622141
0.0931148913504
0.0928397082804
0.0925671360518
0.0922962845363
0.0920264796789
0.0917577128186
0.0914894417029
0.0912219436611
0.0909561292936
0.0906922439848
0.0904301841599
0.0901707157875
0.0899155608175
0.0896651825495
0.0894413659292
0.0892035112841
0.0889746461687
0.088755667964
0.0885477077539
0.0883517860245
0.0881683714713
0.087999530035
0.0878468091743
0.0877113288887
0.0875936923576
0.0874940794927
0.0874131030275
0.0873513724618
0.0873092036656
0.0872554547841
7.23199832865e-54
7.23199832865e-54
7.23199832865e-54
7.23199832865e-54
7.23199832866e-54
7.23199832866e-54
7.23199832866e-54
7.23199832866e-54
7.23199832866e-54
7.23199832866e-54
7.23199832867e-54
7.23199832867e-54
7.23199832868e-54
7.23199832933e-54
7.23199836664e-54
7.23200050203e-54
7.23211843661e-54
7.23872473917e-54
7.35907005291e-54
1.53838561728e-18
0.219144872476
0.232119999498
0.190442688953
0.146159771223
0.119301793154
0.106660862699
0.101446542582
0.0995141383466
0.0987231922658
0.0982348207739
0.0978175622585
0.0974241830576
0.0970444300765
0.0966739906423
0.0963141399667
0.0959635901741
0.0956192891933
0.0952823825265
0.0949521460175
0.0946270154472
0.0943064266007
0.0939885615249
0.0936744558905
0.0933639415184
0.0930546926098
0.0927700298855
0.0924651338137
0.0921630004755
0.0918644652395
0.091569212046
0.0912763667602
0.0909882752803
0.0907063519285
0.0904307389084
0.0901623039017
0.0899024807199
0.0896514978251
0.0894119282597
0.0891850194002
0.0889951200334
0.0887969496476
0.0886148813578
0.0884501510429
0.0883038583024
0.088177034036
0.0880702855573
0.0879837448739
0.0879176402632
0.0878721205697
0.0878172700997
7.23199832823e-54
7.23199832823e-54
7.23199832823e-54
7.23199832823e-54
7.23199832823e-54
7.23199832823e-54
7.23199832824e-54
7.23199832824e-54
7.23199832824e-54
7.23199832824e-54
7.23199832824e-54
7.23199832824e-54
7.23199832828e-54
7.2319983302e-54
7.23199843911e-54
7.23200460827e-54
7.23234060435e-54
7.25081445179e-54
7.50565266812e-54
2.40068210138e-07
0.230961063292
0.227193351751
0.179049117069
0.139420637049
0.117145198004
0.106965830304
0.102890984836
0.101362152939
0.100624049211
0.100102440451
0.0996302374949
0.0991772372029
0.0987398922584
0.0983136049609
0.0978988642267
0.0974950546577
0.0971003486517
0.0967123144685
0.0963524846758
0.0959793401919
0.0956125492328
0.0952508387808
0.0948929312982
0.0945401637806
0.0941914857785
0.0938453921141
0.0935039374193
0.09316704003
0.0928342870512
0.0925053171755
0.0922029027362
0.0918845091231
0.0915728459598
0.0912698463741
0.0909762132748
0.0906926604636
0.0904206806986
0.0901608262672
0.0899149722822
0.0896848206259
0.0894715277713
0.0892760280975
0.0890987265373
0.0889644039664
0.0888277597723
0.0887132007765
0.0886202623731
0.0885492263685
0.0885002316146
0.0884442889014
7.23199832787e-54
7.23199832787e-54
7.23199832787e-54
7.23199832787e-54
7.23199832787e-54
7.23199832788e-54
7.23199832788e-54
7.23199832788e-54
7.23199832788e-54
7.23199832788e-54
7.23199832788e-54
7.23199832788e-54
7.23199832797e-54
7.23199833257e-54
7.2319985902e-54
7.2320129623e-54
7.23278432961e-54
7.2737756518e-54
7.75448181463e-54
0.00761708213755
0.231580630294
0.215995156214
0.168566944724
0.134037795241
0.115883062496
0.107871503878
0.104656549191
0.103389721872
0.1026597039
0.102085230093
0.101550891972
0.101036642512
0.100537092199
0.100073586884
0.0996009123455
0.0991392151457
0.0986897948175
0.0982506016479
0.0978195983078
0.0973964989468
0.0969822830963
0.0965736355505
0.0961712585281
0.0957961396699
0.095405392205
0.0950204005261
0.0946405540365
0.0942649192185
0.0938962282595
0.0935341196686
0.0931785963296
0.0928297011282
0.092488128122
0.0921800254923
0.0918594475852
0.0915504855278
0.0912552190989
0.0909748780472
0.090710114187
0.0904623481906
0.0902330263255
0.0900224431292
0.089832491611
0.0896640023591
0.0895180758373
0.089394535433
0.0893177593454
0.0892418493794
0.0891904315252
0.08913521068
7.23199832756e-54
7.23199832756e-54
7.23199832756e-54
7.23199832756e-54
7.23199832757e-54
7.23199832757e-54
7.23199832757e-54
7.23199832757e-54
7.23199832757e-54
7.23199832757e-54
7.23199832757e-54
7.23199832758e-54
7.23199832787e-54
7.23199834427e-54
7.23199926967e-54
7.2320500178e-54
7.23483904231e-54
7.30612750886e-54
5.40446157225e-19
0.0937046344882
0.231911277453
0.203774908117
0.159103352257
0.129975110845
0.115478188306
0.109179026346
0.106674972942
0.105537898469
0.104807682827
0.104170648888
0.103588943841
0.103007456436
0.102444787243
0.10189712547
0.101365484561
0.100846354908
0.100340738583
0.0998471422127
0.0993846901841
0.0989109985908
0.0984455121952
0.0979901848376
0.0975414118792
0.0971008418409
0.0966681010028
0.0962418253575
0.095843038228
0.0954303077514
0.0950250422365
0.0946266304759
0.0942378468484
0.0938581886649
0.0934884844241
0.0931279329553
0.0928034972762
0.0924704396603
0.092152717604
0.0918508060205
0.0915649464016
0.0912979642724
0.0910521638043
0.0908279447214
0.0906256078627
0.0904458641974
0.0902900439907
0.0901592192711
0.0900535364077
0.0899724335427
0.089940872929
0.089860677914
7.23199832729e-54
7.2319983273e-54
7.2319983273e-54
7.2319983273e-54
7.2319983273e-54
7.2319983273e-54
7.2319983273e-54
7.2319983273e-54
7.2319983273e-54
7.2319983273e-54
7.23199832731e-54
7.23199832732e-54
7.23199832832e-54
7.23199838447e-54
7.23200154038e-54
7.23217247722e-54
7.24152058472e-54
7.39751189429e-54
2.96506043896e-11
0.228147322767
0.232082632849
0.19118212518
0.151012944279
0.127092516454
0.115713936826
0.110841056579
0.108848092641
0.107831487452
0.107059960527
0.106357967751
0.105685490141
0.10503691388
0.104406774327
0.103796151683
0.103221791537
0.102644188424
0.102081301585
0.101531127129
0.100994330827
0.100469319616
0.0999771344281
0.0994705837306
0.0989757933148
0.0984907921789
0.0980131503149
0.0975442111132
0.0970840946973
0.0966553861953
0.0962113769125
0.0957788281125
0.0953567480661
0.0949451153621
0.0945437434708
0.0941561994623
0.0937824784733
0.0934470660803
0.0931051368285
0.0927817742433
0.0924764824361
0.0921919164623
0.0919295714649
0.0916896687209
0.0914735236667
0.0912826583907
0.0911178505001
0.0909791085798
0.0908665585296
0.0907800000497
0.0907447793708
0.0906643147954
7.23199832706e-54
7.23199832706e-54
7.23199832706e-54
7.23199832706e-54
7.23199832707e-54
7.23199832707e-54
7.23199832707e-54
7.23199832707e-54
7.23199832707e-54
7.23199832707e-54
7.23199832707e-54
7.23199832713e-54
7.23199833036e-54
7.23199851019e-54
7.23200849494e-54
7.23254210703e-54
7.26099795118e-54
7.61567605414e-54
0.000132209384592
0.231278126026
0.224166084756
0.179161175884
0.144353900092
0.125293663518
0.11649940419
0.112793605213
0.111160034701
0.110177129541
0.109355516147
0.108583447723
0.107841804496
0.107143721878
0.106449016807
0.105773017907
0.105117924219
0.104479463982
0.103879512689
0.10327317652
0.102682231147
0.102103686526
0.101539560598
0.100984252659
0.100465381529
0.0999344643081
0.0994124345002
0.0989021427439
0.0984021956022
0.0979107476669
0.0974529081767
0.0969842699751
0.0965281104718
0.0960843723148
0.0956528758811
0.0952362890414
0.0948357540324
0.094475719246
0.0941098747491
0.0937649174989
0.0934407580607
0.0931385353473
0.0928586149993
0.0926033347733
0.0923742810504
0.0921719257311
0.0919969378339
0.0918490864815
0.0917286733441
0.0916628653729
0.0916002947976
0.0915425513376
7.23199832686e-54
7.23199832686e-54
7.23199832686e-54
7.23199832686e-54
7.23199832686e-54
7.23199832686e-54
7.23199832686e-54
7.23199832686e-54
7.23199832686e-54
7.23199832686e-54
7.23199832687e-54
7.23199832708e-54
7.231998339e-54
7.23199900328e-54
7.23203522062e-54
7.23399339314e-54
7.29502610526e-54
3.00622801363e-19
0.0507916710768
0.231780062133
0.210829567015
0.168273490475
0.139347847967
0.124520095828
0.117847798505
0.114991439611
0.113585467061
0.112591231826
0.111705331994
0.110881729215
0.110067439944
0.109281409204
0.108517579454
0.107798107712
0.107078839398
0.106379611849
0.105701082431
0.105037564523
0.104413399789
0.1037835162
0.103168613091
0.102565761186
0.101976585284
0.101423188974
0.100856910573
0.100304619512
0.099764657668
0.0992338990906
0.0987419783013
0.0982365947619
0.0977462517636
0.0972708211145
0.0968099478125
0.0963641062657
0.0959365896599
0.0955527492084
0.0951639826256
0.094797212191
0.0944521339664
0.0941308256329
0.0938356903193
0.0935667435418
0.0933248244161
0.0931104853562
0.0929500599328
0.0927937471294
0.0926677555706
0.0925717442349
0.0925056896347
0.0924473157162
7.23199832667e-54
7.23199832668e-54
7.23199832668e-54
7.23199832668e-54
7.23199832668e-54
7.23199832668e-54
7.23199832668e-54
7.23199832668e-54
7.23199832668e-54
7.23199832668e-54
7.2319983267e-54
7.23199832756e-54
7.23199837563e-54
7.23200104752e-54
7.23214467962e-54
7.23993399162e-54
7.37633291594e-54
1.42610794529e-12
0.220457102765
0.232101999224
0.196933150653
0.158864633035
0.135885380308
0.124629916466
0.119636082048
0.117388761016
0.116086375382
0.115050584788
0.114111787453
0.113193909751
0.112309142018
0.111470987911
0.110641376671
0.109836220809
0.109055489172
0.108317530869
0.107577902889
0.106860391258
0.106158883222
0.105498566031
0.104831376396
0.104180870157
0.103545762887
0.10294697858
0.102337733597
0.101743897562
0.1011636735
0.100596906052
0.100067150852
0.0995282493372
0.0990056502495
0.0984970777244
0.0980069941848
0.0975343131252
0.0971058189682
0.0966722989924
0.0962599807928
0.0958719893882
0.0955083175232
0.0951701976297
0.0948587981891
0.0945747415714
0.0943445325555
0.0941187438512
0.0939239305761
0.0937600260765
0.0936274501321
0.0935263484434
0.0934566503586
0.0933975901646
7.23199832651e-54
7.23199832651e-54
7.23199832651e-54
7.23199832651e-54
7.23199832652e-54
7.23199832652e-54
7.23199832652e-54
7.23199832652e-54
7.23199832652e-54
7.23199832652e-54
7.23199832659e-54
7.23199833027e-54
7.23199853172e-54
7.23200953789e-54
7.23258901887e-54
7.26288596276e-54
7.63643146096e-54
0.000174423351259
0.231257414623
0.225642087723
0.183677314842
0.151449502671
0.133762818581
0.125427243678
0.121694468305
0.119874440506
0.118631517848
0.117543762738
0.116514370264
0.115542729564
0.114585235975
0.113660683746
0.112785175034
0.111916437346
0.111072584298
0.110276973893
0.109479756194
0.10870673675
0.107952221435
0.107240757307
0.106524899029
0.105824903744
0.105142691265
0.104499280116
0.103848893946
0.103213733718
0.102593240684
0.101989083696
0.101424473681
0.100850902984
0.100296212822
0.0997590051003
0.099239699107
0.0987650115833
0.0982862007378
0.097830092559
0.0973961303318
0.0969871205269
0.0966049087294
0.0962490994182
0.0959489564662
0.095650835258
0.0953837310921
0.0951477362825
0.0949437324053
0.0947715040697
0.0946321147904
0.0945256865135
0.0944521058571
0.0943920704348
7.23199832637e-54
7.23199832637e-54
7.23199832637e-54
7.23199832637e-54
7.23199832637e-54
7.23199832637e-54
7.23199832637e-54
7.23199832637e-54
7.23199832637e-54
7.23199832638e-54
7.23199832671e-54
7.2319983446e-54
7.23199932382e-54
7.23205156772e-54
7.23482928477e-54
7.30793322967e-54
4.75307360241e-19
0.0763550626707
0.231823289422
0.210912502852
0.171802711315
0.146182360499
0.132980889099
0.126865806957
0.124039261906
0.122428975783
0.12117411794
0.120021815373
0.118939023608
0.117876340869
0.116868464956
0.115874847545
0.11491326975
0.11400309585
0.113098782813
0.112223642971
0.111393011772
0.110566023634
0.109759224787
0.108997605285
0.108233237377
0.107488943991
0.106760042795
0.106075170426
0.105381671533
0.104707179364
0.104048757564
0.103432649895
0.102807886934
0.102202149594
0.101616071872
0.101048689895
0.100526340543
0.100000965247
0.0994988548771
0.0990199420181
0.0985658295879
0.0981374715534
0.0977638526468
0.0973915220324
0.0970488500894
0.0967378487766
0.0964588899456
0.0962125169632
0.0959996770135
0.0958207786595
0.0956758121941
0.0955649105253
0.0954878870829
0.0954271822645
7.23199832624e-54
7.23199832624e-54
7.23199832624e-54
7.23199832624e-54
7.23199832624e-54
7.23199832624e-54
7.23199832624e-54
7.23199832624e-54
7.23199832624e-54
7.23199832628e-54
7.23199832797e-54
7.23199842006e-54
7.23200341151e-54
7.23226511093e-54
7.24603075257e-54
7.45537531789e-54
8.40891094632e-11
0.229881448213
0.232022564256
0.195725524872
0.162276601909
0.142776314975
0.133209945756
0.12875344158
0.126502661022
0.125006417868
0.123727990199
0.12250479295
0.121349415485
0.12021543123
0.119122233734
0.118081967125
0.117058254852
0.116086999335
0.115123618738
0.114191602225
0.113306254302
0.112426634342
0.111570944202
0.11076125282
0.10994904704
0.109158949212
0.108414088619
0.107660681869
0.106929394748
0.106216737935
0.105546833875
0.104870625817
0.104214590575
0.103576691264
0.102959771198
0.102389668444
0.101816041533
0.101265482765
0.100740195686
0.100237894933
0.0997917232232
0.0993445189226
0.0989272181158
0.0985394606552
0.0981840331094
0.0978610209032
0.0975707741336
0.0973140864988
0.0971213684683
0.0969348181774
0.0967841557068
0.0966683551041
0.0965874855572
0.096525747957
7.23199832612e-54
7.23199832612e-54
7.23199832612e-54
7.23199832612e-54
7.23199832612e-54
7.23199832612e-54
7.23199832612e-54
7.23199832612e-54
7.23199832613e-54
7.23199832628e-54
7.23199833479e-54
7.23199879881e-54
7.23202380769e-54
7.23333980933e-54
7.28669274224e-54
1.05888089334e-19
0.0174203872847
0.231589599309
0.220036044073
0.18195047274
0.155270981837
0.141037024375
0.134204378154
0.130920168981
0.129048637428
0.127573801669
0.126221955386
0.124950425111
0.123706519528
0.122527124703
0.121366447238
0.120266427526
0.119181292703
0.118153241998
0.117134204669
0.116148727734
0.115213248923
0.114281277985
0.113377419939
0.112519700346
0.111664278156
0.110831110042
0.110043923731
0.109252591983
0.108483230125
0.107759259819
0.10702884079
0.106320703373
0.105633180804
0.104993595656
0.104348284757
0.103725899167
0.103126907726
0.102551237152
0.102031848758
0.101510269547
0.101016418309
0.100552819748
0.100119615528
0.0997178556055
0.0993781473736
0.0990426322104
0.0987421491581
0.0984767713907
0.0982474771367
0.0980545008248
0.0978981097352
0.0977779721626
0.0976938479707
0.0976316758153
7.23199832601e-54
7.23199832601e-54
7.23199832601e-54
7.23199832601e-54
7.23199832601e-54
7.23199832601e-54
7.23199832601e-54
7.23199832602e-54
7.23199832604e-54
7.23199832713e-54
7.2319983858e-54
7.23200153853e-54
7.23216578143e-54
7.2407535168e-54
7.38783141255e-54
2.79866595848e-12
0.216846066335
0.232052514053
0.203666814834
0.170710073058
0.150800824684
0.140705331698
0.13585941035
0.133314976479
0.131588985738
0.130086549575
0.128688909676
0.127348056009
0.126037647039
0.124793931106
0.123573265912
0.122414301986
0.121271777702
0.120190428376
0.119118542048
0.118103637824
0.117097634926
0.116120905363
0.115193727475
0.114270235809
0.113372501026
0.1125228172
0.111671194496
0.11084157083
0.110062297574
0.109278684613
0.108517827848
0.107778391937
0.107087592512
0.10639289836
0.105722108914
0.105075199067
0.104481746987
0.103884576798
0.103315294796
0.102775491754
0.10226442725
0.101815153745
0.101366897276
0.100952246953
0.100571769994
0.100226277826
0.0999158558887
0.0996419526431
0.0994044226323
0.0992356124681
0.0990728987546
0.098948198313
0.098860522692
0.098797598371
7.23199832591e-54
7.23199832591e-54
7.23199832591e-54
7.23199832591e-54
7.23199832591e-54
7.23199832592e-54
7.23199832592e-54
7.23199832592e-54
7.23199832605e-54
7.23199833291e-54
7.23199869354e-54
7.2320175697e-54
7.23297261835e-54
7.27996009576e-54
7.81499289258e-54
0.00529386413981
0.231435096721
0.224696349635
0.188530441251
0.162521522704
0.14834114349
0.141363245016
0.137863674212
0.135755620918
0.134093825798
0.132546386638
0.131086375216
0.129682139651
0.128310520908
0.127006228994
0.125727440273
0.124514052065
0.123318820185
0.122186153955
0.121066951686
0.120005447892
0.118952976764
0.117954770587
0.116962957409
0.115998982649
0.115086051815
0.114174986877
0.113287845764
0.112451541235
0.11161200382
0.11079642579
0.110030691786
0.109261639631
0.108516868179
0.107796645782
0.10712998398
0.106460145566
0.105817162553
0.105202076631
0.104614743888
0.104088153482
0.103561354593
0.10306719987
0.102606440941
0.102180005542
0.101787608538
0.101464353653
0.101144517389
0.100862972785
0.100619645335
0.10041448614
0.10024766153
0.100118814829
0.100027541192
0.0999635474235
7.23199832582e-54
7.23199832582e-54
7.23199832582e-54
7.23199832582e-54
7.23199832582e-54
7.23199832582e-54
7.23199832583e-54
7.23199832585e-54
7.23199832697e-54
7.23199838634e-54
7.23200151356e-54
7.23216143276e-54
7.24034195118e-54
7.3825403172e-54
1.5209964857e-18
0.204209461692
0.232004980536
0.207364435482
0.176301766383
0.157391689162
0.147666188828
0.142794309876
0.140113366844
0.138199781777
0.136524301577
0.134921704763
0.133401163222
0.131940722662
0.130511277178
0.129153356026
0.127822255319
0.126557381017
0.125335662257
0.124131286043
0.122991267131
0.121863022795
0.120769012671
0.119731376593
0.118700371421
0.117725252236
0.116752242844
0.115804681499
0.114912652804
0.114017923451
0.113148731583
0.112332212079
0.111510292836
0.110715476484
0.109976369089
0.109232504418
0.108514615642
0.107823400945
0.107191330748
0.106557825676
0.105954049855
0.10538217616
0.104841287873
0.104366491807
0.103893201991
0.103456930357
0.103057187277
0.102693092726
0.10236648936
0.102077377506
0.101860156369
0.101648706954
0.101477411369
0.101344784432
0.101250223157
0.101185217285
7.23199832574e-54
7.23199832574e-54
7.23199832574e-54
7.23199832574e-54
7.23199832574e-54
7.23199832574e-54
7.23199832575e-54
7.23199832591e-54
7.23199833462e-54
7.23199879094e-54
7.23202266287e-54
7.23324015041e-54
7.28652183248e-54
5.89204688056e-20
0.00943686618965
0.231471276829
0.225104413632
0.191493057123
0.167695240336
0.154699295956
0.148125690279
0.144656006169
0.142408120723
0.140564494879
0.138850291418
0.137194762918
0.135622015427
0.134107324642
0.132628231576
0.131221699991
0.129863155139
0.128532786116
0.127267592342
0.126022577785
0.124840128715
0.123670709686
0.122564350432
0.121464827427
0.120424464523
0.119389674594
0.118384020092
0.11743490232
0.116484782083
0.11559009402
0.114693616004
0.113823280472
0.11300905951
0.112190607872
0.111398961203
0.110633898876
0.109929682124
0.109220154775
0.108541389879