/*--------------------------------*- C++ -*----------------------------------*\
| =========                 |                                                 |
| \\      /  F ield         | foam-extend: Open Source CFD                    |
|  \\    /   O peration     | Version:     4.1                                |
|   \\  /    A nd           | Web:         http://www.foam-extend.org         |
|    \\/     M anipulation  |                                                 |
\*---------------------------------------------------------------------------*/
FoamFile
{
    version     2.0;
    format      ascii;
    class       volScalarField;
    location    "0.0009";
    object      O2;
}
// * * * * * * * * * * * * * * * * * * * * * * * * * * * * * * * * * * * * * //

dimensions      [0 0 0 0 0 0 0];

internalField   nonuniform List<scalar> 
8400
(
0.232918
0.232918
0.232918
0.232918
0.232918
0.232918
0.232918
0.232918
0.232918
0.232918
0.232918
0.232918
0.232918
0.232918
0.232918
0.232918
0.232918
0.232918
0.232918
0.232918
0.232918
0.232918
0.23291726848
0.0231796210909
4.69980603849e-06
1.41846422941e-07
7.45462194593e-08
5.43693619644e-08
4.80594485762e-08
4.60610509987e-08
4.53289072568e-08
4.49612818255e-08
4.47157299649e-08
4.45082019988e-08
4.43234304724e-08
4.4154330381e-08
4.39972020753e-08
4.3848935821e-08
4.37071971649e-08
4.35699097502e-08
4.3436542996e-08
4.33043868034e-08
4.31717610798e-08
4.30374418683e-08
4.29002638849e-08
4.27592050857e-08
4.26142958046e-08
4.24903984539e-08
4.23343036809e-08
4.21720191507e-08
4.20034248658e-08
4.18299191872e-08
4.1650954995e-08
4.14669384822e-08
4.12788360151e-08
4.10886837096e-08
4.08974601229e-08
4.07066809851e-08
4.0518299588e-08
4.03367098254e-08
4.01619961061e-08
3.99964033607e-08
3.98422562285e-08
3.97024364555e-08
3.95785947109e-08
3.94724512138e-08
3.938562164e-08
3.93194403551e-08
3.9274876953e-08
3.92356385804e-08
0.232918
0.232918
0.232918
0.232918
0.232918
0.232918
0.232918
0.232918
0.232918
0.232918
0.232918
0.232918
0.232918
0.232918
0.232918
0.232918
0.232918
0.232918
0.232918
0.232918
0.232918
0.232918
0.232119119961
4.21890221873e-05
3.53637912891e-07
1.02913759564e-07
6.22460169986e-08
4.92691296479e-08
4.54192738985e-08
4.42914281486e-08
4.39307176668e-08
4.37767954465e-08
4.36863399834e-08
4.3600718184e-08
4.35143686551e-08
4.34254322976e-08
4.33334340031e-08
4.32111183288e-08
4.31120455903e-08
4.30106523988e-08
4.29047174643e-08
4.27937575319e-08
4.26772573059e-08
4.25550926411e-08
4.24275405605e-08
4.22930856391e-08
4.215139398e-08
4.2002253474e-08
4.18465952233e-08
4.16835684354e-08
4.15133907612e-08
4.13369948114e-08
4.11568766675e-08
4.09718468126e-08
4.0783105596e-08
4.05927972788e-08
4.04023114363e-08
4.02130552942e-08
4.00271913982e-08
3.98489476239e-08
3.96781640389e-08
3.95170031983e-08
3.93676139079e-08
3.92328769409e-08
3.91137803014e-08
3.90119882208e-08
3.892890537e-08
3.88656509004e-08
3.88229842799e-08
3.87867809736e-08
0.232918
0.232918
0.232918
0.232918
0.232918
0.232918
0.232918
0.232918
0.232918
0.232918
0.232918
0.232918
0.232918
0.232918
0.232918
0.232918
0.232918
0.232918
0.232918
0.232918
0.232918
0.2329177277
0.133475363813
9.90730242402e-06
1.70333825064e-07
7.93868631066e-08
5.42373657108e-08
4.64019450808e-08
4.41142739192e-08
4.34947387264e-08
4.33306716452e-08
4.32512329866e-08
4.32126304531e-08
4.31718137361e-08
4.31254267008e-08
4.30463252526e-08
4.29881262169e-08
4.2922868437e-08
4.28504281385e-08
4.27705862021e-08
4.26830843457e-08
4.25887379185e-08
4.24864280108e-08
4.23756956849e-08
4.22563215661e-08
4.21281794282e-08
4.19921298869e-08
4.18473492197e-08
4.16940501108e-08
4.15326263759e-08
4.13658695171e-08
4.11925314993e-08
4.10133733082e-08
4.08298157362e-08
4.06438538426e-08
4.04561752108e-08
4.02685132726e-08
4.00844222768e-08
3.9905021551e-08
3.9731457542e-08
3.95657959434e-08
3.9410770068e-08
3.92678064785e-08
3.91384903331e-08
3.90244893354e-08
3.89272718707e-08
3.88481890946e-08
3.87886932556e-08
3.87484840622e-08
3.87165116432e-08
0.232918
0.232918
0.232918
0.232918
0.232918
0.232918
0.232918
0.232918
0.232918
0.232918
0.232918
0.232918
0.232918
0.232918
0.232918
0.232918
0.232918
0.232918
0.232918
0.232918
0.232918
0.232911208426
0.000168506140165
9.07046091956e-07
1.19241913183e-07
6.64909430233e-08
5.01875662953e-08
4.52928892295e-08
4.39137946701e-08
4.3504497649e-08
4.3385410756e-08
4.33379954564e-08
4.32959132772e-08
4.32504315574e-08
4.3199667714e-08
4.31159047679e-08
4.30537202138e-08
4.29850765714e-08
4.29092682405e-08
4.28259535933e-08
4.27347550805e-08
4.26355685725e-08
4.25289433015e-08
4.24135556496e-08
4.22892208701e-08
4.21558549397e-08
4.2013949799e-08
4.1863747157e-08
4.17050956446e-08
4.15384786161e-08
4.13657947612e-08
4.11881161309e-08
4.1005159877e-08
4.08182425424e-08
4.06297159837e-08
4.04405134519e-08
4.02521542513e-08
4.00670221496e-08
3.98884838809e-08
3.9716467321e-08
3.95528893944e-08
3.93998027808e-08
3.9259594183e-08
3.91331419719e-08
3.90219466088e-08
3.89272794799e-08
3.88502021045e-08
3.87915031918e-08
3.87517122633e-08
3.87215236168e-08
0.232918
0.232918
0.232918
0.232918
0.232918
0.232918
0.232918
0.232918
0.232918
0.232918
0.232918
0.232918
0.232918
0.232918
0.232918
0.232918
0.232918
0.232918
0.232918
0.232918
0.232918
0.225695065178
2.58708326601e-05
2.6432019516e-07
9.49655299851e-08
5.97747830098e-08
4.85783815774e-08
4.53557443528e-08
4.44187972386e-08
4.41316680324e-08
4.399301345e-08
4.39110581565e-08
4.38328669981e-08
4.37530908174e-08
4.36701272785e-08
4.35839691212e-08
4.34663184362e-08
4.33703184816e-08
4.32684592295e-08
4.31605768949e-08
4.30475320903e-08
4.29272512085e-08
4.27993132327e-08
4.26633752367e-08
4.25201660432e-08
4.23693281335e-08
4.22102692316e-08
4.2043201666e-08
4.18691285345e-08
4.16885003101e-08
4.15015567125e-08
4.13093266571e-08
4.11153287356e-08
4.09186165146e-08
4.07204941946e-08
4.0523143409e-08
4.03284124159e-08
4.01374818625e-08
3.99522198262e-08
3.97764062295e-08
3.96103148304e-08
3.94552803656e-08
3.93130280693e-08
3.91853593503e-08
3.90737595093e-08
3.89789024004e-08
3.89017240619e-08
3.88429061676e-08
3.88029123013e-08
3.87724935535e-08
0.232918
0.232918
0.232918
0.232918
0.232918
0.232918
0.232918
0.232918
0.232918
0.232918
0.232918
0.232918
0.232918
0.232918
0.232918
0.232918
0.232918
0.232918
0.232918
0.232918
0.232917737591
0.136444427145
1.01664178219e-05
1.73693398826e-07
8.14001850487e-08
5.61699121763e-08
4.83708536513e-08
4.61421792756e-08
4.54495592381e-08
4.51885503241e-08
4.50070282805e-08
4.48698033607e-08
4.47368358872e-08
4.46045752376e-08
4.44714995319e-08
4.43367996104e-08
4.42018824217e-08
4.40640439535e-08
4.39224252919e-08
4.37492449523e-08
4.35989545581e-08
4.34428518789e-08
4.3280505985e-08
4.31118740192e-08
4.29385689255e-08
4.27583052845e-08
4.25711355225e-08
4.23782097105e-08
4.21800005442e-08
4.19761183049e-08
4.17675491813e-08
4.15560798596e-08
4.13418114038e-08
4.1126057551e-08
4.09126158174e-08
4.07270437035e-08
4.05190888465e-08
4.03168371598e-08
4.01222327914e-08
3.99363148925e-08
3.97609306112e-08
3.95990702625e-08
3.94518740257e-08
3.9319858405e-08
3.92042354415e-08
3.91061108306e-08
3.90262565744e-08
3.89655153123e-08
3.89242112899e-08
3.88938796332e-08
0.232918
0.232918
0.232918
0.232918
0.232918
0.232918
0.232918
0.232918
0.232918
0.232918
0.232918
0.232918
0.232918
0.232918
0.232918
0.232918
0.232918
0.232918
0.232918
0.232918
0.232916667095
0.00226737937468
3.17268579022e-06
1.34860561413e-07
7.30913672156e-08
5.45600041343e-08
4.90157071932e-08
4.74255707122e-08
4.68686733768e-08
4.65743850251e-08
4.63328283371e-08
4.61304892407e-08
4.59334590649e-08
4.57385204207e-08
4.55453054739e-08
4.53550151497e-08
4.51642351665e-08
4.49722968867e-08
4.47794894892e-08
4.45839898154e-08
4.43850767747e-08
4.41842158224e-08
4.39796602956e-08
4.3770142073e-08
4.35560009178e-08
4.33372062714e-08
4.31131043826e-08
4.28849515133e-08
4.2654135256e-08
4.241928755e-08
4.21819127996e-08
4.1943805227e-08
4.17045908284e-08
4.14660634835e-08
4.12301308657e-08
4.09975386345e-08
4.07708593301e-08
4.05529991304e-08
4.03436444478e-08
4.01445463528e-08
3.99584050311e-08
3.97859575765e-08
3.96286395578e-08
3.94878291304e-08
3.93654327707e-08
3.92624125176e-08
3.91786687988e-08
3.91147816915e-08
3.90710881475e-08
3.90398031208e-08
0.232918
0.232918
0.232918
0.232918
0.232918
0.232918
0.232918
0.232918
0.232918
0.232918
0.232918
0.232918
0.232918
0.232918
0.232918
0.232918
0.232918
0.232918
0.232918
0.232918
0.232744935111
5.98966030615e-05
4.5717483e-07
1.12373861152e-07
6.80079702127e-08
5.42828210966e-08
5.02818381443e-08
4.90777098783e-08
4.85483733448e-08
4.82313473771e-08
4.79175728251e-08
4.76427213961e-08
4.73750912196e-08
4.71123821059e-08
4.68527325128e-08
4.65973186284e-08
4.63430246425e-08
4.60900232326e-08
4.58374163014e-08
4.55838075612e-08
4.53315351307e-08
4.50775081673e-08
4.48208458593e-08
4.45622706151e-08
4.43002313694e-08
4.4035987516e-08
4.37703935892e-08
4.35015405297e-08
4.32308740698e-08
4.29584288355e-08
4.26847327734e-08
4.24140555862e-08
4.21441821992e-08
4.18772486158e-08
4.16155093823e-08
4.13588224104e-08
4.11097281169e-08
4.08959498604e-08
4.06666705708e-08
4.0450443878e-08
4.02495779202e-08
4.00639092758e-08
3.98949437963e-08
3.9744386465e-08
3.96133905002e-08
3.95024285809e-08
3.9412268257e-08
3.93434466317e-08
3.92962726558e-08
3.92631099441e-08
0.232918
0.232918
0.232918
0.232918
0.232918
0.232918
0.232918
0.232918
0.232918
0.232918
0.232918
0.232918
0.232918
0.232918
0.232918
0.232918
0.232918
0.232918
0.232918
0.232918
0.21795666484
2.22112108133e-05
2.54334604796e-07
9.82497540331e-08
6.50705355884e-08
5.49643098369e-08
5.21258438906e-08
5.11196358762e-08
5.05822815926e-08
5.01830675681e-08
4.97797206913e-08
4.94173292016e-08
4.90634005788e-08
4.87184989872e-08
4.83808649904e-08
4.80484518119e-08
4.7720500929e-08
4.73966321376e-08
4.70774814791e-08
4.67595822702e-08
4.64448536222e-08
4.61298346397e-08
4.58152270129e-08
4.54999046246e-08
4.51845795487e-08
4.48974982576e-08
4.45814330239e-08
4.42658171523e-08
4.39493745022e-08
4.36352127488e-08
4.33231850338e-08
4.30135303343e-08
4.27088164934e-08
4.24082510747e-08
4.21146065588e-08
4.18285617023e-08
4.15524013512e-08
4.12895734358e-08
4.10390446739e-08
4.08029047276e-08
4.05830889411e-08
4.03804892992e-08
4.0196725362e-08
4.0034658932e-08
3.98936239552e-08
3.9774069393e-08
3.96768968577e-08
3.96026834076e-08
3.95517872423e-08
3.95170576368e-08
0.232918
0.232918
0.232918
0.232918
0.232918
0.232918
0.232918
0.232918
0.232918
0.232918
0.232918
0.232918
0.232918
0.232918
0.232918
0.232918
0.232918
0.232918
0.232918
0.232917730045
0.136015259907
1.0507550788e-05
1.83964244286e-07
8.88222395109e-08
6.3891226125e-08
5.64984823256e-08
5.43915886532e-08
5.35067697366e-08
5.29222344533e-08
5.24149773897e-08
5.1933955171e-08
5.14678295619e-08
5.10138719149e-08
5.05755894247e-08
5.01469888837e-08
4.97286787614e-08
4.93179021707e-08
4.8913605068e-08
4.85169196324e-08
4.81258217715e-08
4.77388872986e-08
4.73546292792e-08
4.69752267485e-08
4.65983076682e-08
4.62243136261e-08
4.5852029081e-08
4.54816373913e-08
4.51129257367e-08
4.47480444719e-08
4.43871685619e-08
4.40300246532e-08
4.36778594674e-08
4.33321369602e-08
4.29957141431e-08
4.26937026078e-08
4.23772296606e-08
4.20721169729e-08
4.17814147026e-08
4.15063663235e-08
4.12474776328e-08
4.10074302919e-08
4.07868562278e-08
4.05870061324e-08
4.04099292357e-08
4.02569682491e-08
4.01275515416e-08
4.00223685536e-08
3.99419001664e-08
3.98864344024e-08
3.98493214433e-08
0.232918
0.232918
0.232918
0.232918
0.232918
0.232918
0.232918
0.232918
0.232918
0.232918
0.232918
0.232918
0.232918
0.232918
0.232918
0.232918
0.232918
0.232918
0.232918
0.232917073794
0.00616491575518
4.12349583269e-06
1.47428682908e-07
8.24257650991e-08
6.38645187005e-08
5.86925351517e-08
5.70844313223e-08
5.62130954346e-08
5.55249960893e-08
5.48990024911e-08
5.42983631568e-08
5.37182156336e-08
5.31558879641e-08
5.26097406288e-08
5.20795483397e-08
5.15633228603e-08
5.10595412859e-08
5.0566885759e-08
5.0085242663e-08
4.96132889939e-08
4.91480211079e-08
4.86897211281e-08
4.82373525695e-08
4.77921819173e-08
4.73514719449e-08
4.69454626879e-08
4.6514875243e-08
4.60883571231e-08
4.5670179055e-08
4.52570835386e-08
4.48512811899e-08
4.44523715545e-08
4.40652992573e-08
4.36874492006e-08
4.33228020089e-08
4.29700747474e-08
4.26327951611e-08
4.23108151419e-08
4.2008329707e-08
4.17539390217e-08
4.14909383599e-08
4.12508234182e-08
4.10336420686e-08
4.0840568257e-08
4.06734343614e-08
4.05332220341e-08
4.04192864442e-08
4.03320015852e-08
4.02715798281e-08
4.02319428498e-08
0.232918
0.232918
0.232918
0.232918
0.232918
0.232918
0.232918
0.232918
0.232918
0.232918
0.232918
0.232918
0.232918
0.232918
0.232918
0.232918
0.232918
0.232918
0.232918
0.232787161071
7.0579427365e-05
5.79105839413e-07
1.24486644141e-07
7.84438425776e-08
6.49960485923e-08
6.13252675926e-08
6.0046950824e-08
5.91726543748e-08
5.83610001931e-08
5.7607897034e-08
5.68792263579e-08
5.6172598427e-08
5.54922705513e-08
5.48311960819e-08
5.41903190997e-08
5.35686115825e-08
5.29647414192e-08
5.23748196985e-08
5.18284168411e-08
5.12664932889e-08
5.07169262303e-08
5.01768076967e-08
4.96455890666e-08
4.91254334976e-08
4.86133422827e-08
4.81090735332e-08
4.76140613669e-08
4.71275771472e-08
4.66514096367e-08
4.61830231501e-08
4.57538833666e-08
4.5306630698e-08
4.48707805998e-08
4.4450025501e-08
4.40437927416e-08
4.36548219059e-08
4.32825974035e-08
4.29296726757e-08
4.25966556195e-08
4.22866539411e-08
4.20008916276e-08
4.1739060211e-08
4.15040340379e-08
4.13239176428e-08
4.11427596028e-08
4.09898028371e-08
4.0865885095e-08
4.07710482593e-08
4.07051918607e-08
4.06626650601e-08
0.232918
0.232918
0.232918
0.232918
0.232918
0.232918
0.232918
0.232918
0.232918
0.232918
0.232918
0.232918
0.232918
0.232918
0.232918
0.232918
0.232918
0.232918
0.232918
0.2187469527
2.35729069084e-05
2.81318112585e-07
1.09834484177e-07
7.65618960477e-08
6.71199924497e-08
6.46436236863e-08
6.34354034704e-08
6.24524393875e-08
6.14784342889e-08
6.05659946234e-08
5.96868961562e-08
5.88402835302e-08
5.80231183019e-08
5.72673243898e-08
5.65047493923e-08
5.57643127429e-08
5.50488812593e-08
5.43541996141e-08
5.36768107655e-08
5.30158165984e-08
5.23734034581e-08
5.17445557434e-08
5.11298796234e-08
5.05582269167e-08
4.99708078498e-08
4.93951111201e-08
4.883044436e-08
4.827694804e-08
4.77373479052e-08
4.72102979191e-08
4.66976452769e-08
4.6198227934e-08
4.57126171624e-08
4.52769339573e-08
4.48274280577e-08
4.43970721995e-08
4.39875259166e-08
4.36014210179e-08
4.32385337633e-08
4.29011808387e-08
4.2589088618e-08
4.23049483124e-08
4.20485673917e-08
4.18214164733e-08
4.16261574583e-08
4.14610889586e-08
4.13551519805e-08
4.1252164672e-08
4.11806044814e-08
4.11351417895e-08
0.232918
0.232918
0.232918
0.232918
0.232918
0.232918
0.232918
0.232918
0.232918
0.232918
0.232918
0.232918
0.232918
0.232918
0.232918
0.232918
0.232918
0.232918
0.232917681978
0.124981192233
1.03947859453e-05
1.96873417452e-07
1.00114718454e-07
7.65328617105e-08
7.02434540909e-08
6.84079108942e-08
6.72062011082e-08
6.59975688084e-08
6.48655474082e-08
6.37714207137e-08
6.27556745629e-08
6.17477397064e-08
6.07804606523e-08
5.98471590628e-08
5.89488848546e-08
5.80807045617e-08
5.72422602154e-08
5.64316352321e-08
5.56766534966e-08
5.49123169921e-08
5.41670410674e-08
5.34450274624e-08
5.27394649851e-08
5.20522792233e-08
5.13825584139e-08
5.07287240541e-08
5.01211265806e-08
4.94996644517e-08
4.88933541602e-08
4.83021119997e-08
4.77308699225e-08
4.71771139766e-08
4.6641748374e-08
4.61260728749e-08
4.56615921171e-08
4.5190592427e-08
4.47439681189e-08
4.43218670741e-08
4.39262484112e-08
4.35574778014e-08
4.32199486273e-08
4.29124131285e-08
4.26358256529e-08
4.23920410947e-08
4.21803774841e-08
4.20016422857e-08
4.18568157953e-08
4.17455985045e-08
4.16970720354e-08
4.16191593568e-08
0.232918
0.232918
0.232918
0.232918
0.232918
0.232918
0.232918
0.232918
0.232918
0.232918
0.232918
0.232918
0.232918
0.232918
0.232918
0.232918
0.232918
0.232918
0.232914829148
0.000761265853635
3.31029522717e-06
1.5526780906e-07
9.42809960142e-08
7.80563435405e-08
7.40769127152e-08
7.25823050716e-08
7.12318768864e-08
6.98698464797e-08
6.85252281558e-08
6.7234212606e-08
6.59966866848e-08
6.48138653569e-08
6.36771093572e-08
6.25888692354e-08
6.15740238146e-08
6.05679316635e-08
5.95974885867e-08
5.86586003794e-08
5.77536091328e-08
5.68772291881e-08
5.6059757183e-08
5.52328366677e-08
5.44328458314e-08
5.36555470914e-08
5.28978882804e-08
5.21615091623e-08
5.14466668926e-08
5.07837570403e-08
5.01068680735e-08
4.94527218366e-08
4.88198073395e-08
4.82078162882e-08
4.76173517294e-08
4.70526035078e-08
4.6512405461e-08
4.60285799839e-08
4.55420944142e-08
4.50832000896e-08
4.46542875988e-08
4.42552703102e-08
4.38908754934e-08
4.35582256296e-08
4.32609431408e-08
4.29978790786e-08
4.27696714538e-08
4.25783176659e-08
4.24226281297e-08
4.23026622039e-08
4.22480501787e-08
4.21663739142e-08
0.232918
0.232918
0.232918
0.232918
0.232918
0.232918
0.232918
0.232918
0.232918
0.232918
0.232918
0.232918
0.232918
0.232918
0.232918
0.232918
0.232918
0.232918
0.231564594015
4.23733938555e-05
4.44178729293e-07
1.31699340395e-07
9.14154666773e-08
8.09674975451e-08
7.84941210778e-08
7.71050030613e-08
7.55251268558e-08
7.39185228861e-08
7.23521997939e-08
7.08462632089e-08
6.9411204075e-08
6.8074549555e-08
6.67625614538e-08
6.55034736372e-08
6.42998310202e-08
6.3142146476e-08
6.20640932112e-08
6.09924755222e-08
5.99605326067e-08
5.89616675347e-08
5.79990498585e-08
5.70650161382e-08
5.6198166634e-08
5.53245195693e-08
5.44750387803e-08
5.36536595388e-08
5.28579336701e-08
5.20853604696e-08
5.13700603887e-08
5.06481466888e-08
4.99513937353e-08
4.92812724853e-08
4.86360029773e-08
4.80185287651e-08
4.74301444488e-08
4.69036014213e-08
4.63752936838e-08
4.58789703221e-08
4.54173943988e-08
4.4988467074e-08
4.45946720311e-08
4.42362672181e-08
4.39169944971e-08
4.36343597186e-08
4.33900783472e-08
4.31845072544e-08
4.30169502347e-08
4.2919147156e-08
4.28282522802e-08
4.27719551289e-08
0.232918
0.232918
0.232918
0.232918
0.232918
0.232918
0.232918
0.232918
0.232918
0.232918
0.232918
0.232918
0.232918
0.232918
0.232918
0.232918
0.232918
0.232917824159
0.169676073778
1.46994045879e-05
2.42946219354e-07
1.17815068859e-07
9.144574061e-08
8.52121379259e-08
8.35753153002e-08
8.19708893632e-08
8.00957327855e-08
7.82061119695e-08
7.63846570322e-08
7.46834407197e-08
7.30251007225e-08
7.14504915494e-08
6.99439267331e-08
6.85441038055e-08
6.71688843138e-08
6.58513297171e-08
6.4589205822e-08
6.3375176478e-08
6.22436361589e-08
6.11214731389e-08
6.00397412145e-08
5.89932790056e-08
5.79849682725e-08
5.70459299031e-08
5.6101213956e-08
5.51907075833e-08
5.43110534551e-08
5.34583056199e-08
5.2673572588e-08
5.18802512244e-08
5.11178090659e-08
5.03863946886e-08
4.96849507741e-08
4.90133342186e-08
4.83771751558e-08
4.78078089402e-08
4.72384642277e-08
4.67048427886e-08
4.62069916149e-08
4.57454173672e-08
4.53248868265e-08
4.49422629294e-08
4.46007308242e-08
4.4298429902e-08
4.40690412422e-08
4.38491044162e-08
4.36698278014e-08
4.3531313614e-08
4.34334525715e-08
4.33732924629e-08
0.232918
0.232918
0.232918
0.232918
0.232918
0.232918
0.232918
0.232918
0.232918
0.232918
0.232918
0.232918
0.232918
0.232918
0.232918
0.232918
0.232918
0.232916896126
0.0052294188794
5.10904817139e-06
1.78353074496e-07
1.09962482073e-07
9.38806044158e-08
9.05462335298e-08
8.91373358085e-08
8.71519912419e-08
8.49024467054e-08
8.27010193616e-08
8.06371402724e-08
7.86405742495e-08
7.67505507456e-08
7.49880534239e-08
7.32788762449e-08
7.16466895675e-08
7.00937297167e-08
6.86441776764e-08
6.72212470676e-08
6.58603393629e-08
6.45510801973e-08
6.33352353442e-08
6.2128309922e-08
6.09658712375e-08
5.9847835212e-08
5.88054395228e-08
5.7762628143e-08
5.67604939459e-08
5.57944088086e-08
5.48630178926e-08
5.400017538e-08
5.3137543201e-08
5.23093244353e-08
5.15134254797e-08
5.0755416051e-08
5.00332623699e-08
4.93815074926e-08
4.87316108725e-08
4.81183514054e-08
4.75471361573e-08
4.70153689749e-08
4.65240779056e-08
4.60752240405e-08
4.56672894044e-08
4.53355516324e-08
4.5013756354e-08
4.47353753664e-08
4.4501267854e-08
4.43102212496e-08
4.41622930275e-08
4.40573113509e-08
4.39927912507e-08
0.232918
0.232918
0.232918
0.232918
0.232918
0.232918
0.232918
0.232918
0.232918
0.232918
0.232918
0.232918
0.232918
0.232918
0.232918
0.232918
0.232918
0.231376371645
4.37424303487e-05
5.13113401348e-07
1.47559435873e-07
1.07106863698e-07
9.81849121769e-08
9.65630666937e-08
9.48679116594e-08
9.24692846151e-08
8.98851993818e-08
8.73696991665e-08
8.49800980728e-08
8.27568834184e-08
8.06121645247e-08
7.85840544697e-08
7.66957950181e-08
7.48622991199e-08
7.31178118529e-08
7.14950325043e-08
6.99061462274e-08
6.83894492134e-08
6.69360660073e-08
6.55837075337e-08
6.4248772329e-08
6.29652574076e-08
6.17345590794e-08
6.05867774508e-08
5.94471656321e-08
5.83510855256e-08
5.7294506312e-08
5.62814596968e-08
5.53436718712e-08
5.44072709163e-08
5.35122260937e-08
5.26566282076e-08
5.18406236014e-08
5.10991642672e-08
5.03629109983e-08
4.96688951359e-08
4.90150509312e-08
4.84041160364e-08
4.78371587942e-08
4.73155342731e-08
4.68732036973e-08
4.64406487094e-08
4.60535001646e-08
4.57126990027e-08
4.54170565627e-08
4.51680184113e-08
4.49646776523e-08
4.48068445488e-08
4.46942852973e-08
4.46246198587e-08
0.232918
0.232918
0.232918
0.232918
0.232918
0.232918
0.232918
0.232918
0.232918
0.232918
0.232918
0.232918
0.232918
0.232918
0.232918
0.232918
0.232917720255
0.14281517196
1.30642378989e-05
2.51777132225e-07
1.31452984298e-07
1.08574129535e-07
1.043961075e-07
1.03212083884e-07
1.00920207843e-07
9.79589033405e-08
9.49724090815e-08
9.21177969221e-08
8.94610963431e-08
8.69167478061e-08
8.45520658797e-08
8.22784118985e-08
8.01242782716e-08
7.812190158e-08
7.6179985421e-08
7.4335765323e-08
7.26163500402e-08
7.09406209288e-08
6.9337519092e-08
6.78453143651e-08
6.63805319418e-08
6.49758333798e-08
6.36271959303e-08
6.23756243618e-08
6.1132535559e-08
5.99413563737e-08
5.87993583492e-08
5.77414632941e-08
5.66888977262e-08
5.56810677564e-08
5.47190208194e-08
5.38012921981e-08
5.29633259379e-08
5.21337040903e-08
5.13490390369e-08
5.0609403655e-08
4.99154534445e-08
4.92678868686e-08
4.87042191709e-08
4.81498543364e-08
4.76422182482e-08
4.71849018636e-08
4.67754421358e-08
4.64156970994e-08
4.61040194787e-08
4.58405651116e-08
4.56263382819e-08
4.54596396516e-08
4.53400957398e-08
4.52658975112e-08
0.232918
0.232918
0.232918
0.232918
0.232918
0.232918
0.232918
0.232918
0.232918
0.232918
0.232918
0.232918
0.232918
0.232918
0.232918
0.232918
0.232910745683
0.000237853427233
2.94919563319e-06
1.83171475932e-07
1.24870483144e-07
1.1318109148e-07
1.11729771472e-07
1.10103934477e-07
1.07013201977e-07
1.03549681358e-07
1.00195832851e-07
9.69823445306e-08
9.40028931449e-08
9.11578714467e-08
8.84824311288e-08
8.59951852512e-08
8.36099751745e-08
8.13928067458e-08
7.92487113035e-08
7.7217491277e-08
7.53245442893e-08
7.34862032991e-08
7.17333513331e-08
7.01016430503e-08
6.84999081525e-08
6.69727730938e-08
6.55515491722e-08
6.41482410048e-08
6.28068919245e-08
6.15213148664e-08
6.03299128839e-08
5.91514276774e-08
5.80238151836e-08
5.69438245631e-08
5.59151935853e-08
5.49753062875e-08
5.40446660391e-08
5.31629685832e-08
5.23304536712e-08
5.15448883867e-08
5.08506266261e-08
5.0166054114e-08
4.95310451911e-08
4.89456538138e-08
4.84129748566e-08
4.79309378792e-08
4.7501281921e-08
4.7121530575e-08
4.68320559604e-08
4.65547715243e-08
4.63275739225e-08
4.61512113327e-08
4.6024226969e-08
4.59449706449e-08
0.232918
0.232918
0.232918
0.232918
0.232918
0.232918
0.232918
0.232918
0.232918
0.232918
0.232918
0.232918
0.232918
0.232918
0.232918
0.232917938359
0.206592870844
2.27753716831e-05
3.62601956856e-07
1.54586159283e-07
1.24808458782e-07
1.20263549686e-07
1.19536301886e-07
1.16933513262e-07
1.1316209122e-07
1.09183520931e-07
1.05376516492e-07
1.01847531392e-07
9.84940972269e-08
9.53954479485e-08
9.24367069164e-08
8.9696948598e-08
8.70708694379e-08
8.46364917494e-08
8.22879222698e-08
8.00672419636e-08
7.800198996e-08
7.59971179983e-08
7.40933433787e-08
7.23188895303e-08
7.05898923195e-08
6.89381916073e-08
6.74014971299e-08
6.58917471506e-08
6.44511308584e-08
6.31131238381e-08
6.17940952981e-08
6.05349339472e-08
5.93322709878e-08
5.82256479236e-08
5.71321278494e-08
5.6093336206e-08
5.51071946253e-08
5.41726717762e-08
5.33345150521e-08
5.25077900857e-08
5.17342131909e-08
5.10148179533e-08
5.03490975835e-08
4.9736662391e-08
4.9216531631e-08
4.8712070842e-08
4.82603091712e-08
4.78633871554e-08
4.75187749104e-08
4.72284147834e-08
4.69903103158e-08
4.68038462852e-08
4.66685882884e-08
4.65835811865e-08
0.232918
0.232918
0.232918
0.232918
0.232918
0.232918
0.232918
0.232918
0.232918
0.232918
0.232918
0.232918
0.232918
0.232918
0.232918
0.232916795471
0.00790555843602
6.49015346182e-06
2.20034217359e-07
1.43364981695e-07
1.30028397283e-07
1.29090683038e-07
1.27627507803e-07
1.23782549081e-07
1.19232653723e-07
1.14747216084e-07
1.10572101269e-07
1.06673224572e-07
1.02980607914e-07
9.95724901024e-08
9.63321077798e-08
9.33337260608e-08
9.04668608993e-08
8.78141115279e-08
8.52616746941e-08
8.2896308958e-08
8.06135845667e-08
7.844902984e-08
7.64364804918e-08
7.44819266582e-08
7.26209345773e-08
7.08921353207e-08
6.92006579347e-08
6.75854134378e-08
6.60905570778e-08
6.46209921229e-08
6.32175352912e-08
6.18803928321e-08
6.0646358837e-08
5.94308405121e-08
5.82756337449e-08
5.71796811273e-08
5.61836972358e-08
5.52008809516e-08
5.42749418366e-08
5.34077221614e-08
5.259754313e-08
5.18870135669e-08
5.11894547771e-08
5.054972537e-08
4.99661552467e-08
4.94384143963e-08
4.89683548153e-08
4.85530520075e-08
4.81945912023e-08
4.79311102297e-08
4.7681010115e-08
4.74855692305e-08
4.73428097742e-08
4.72518915329e-08
0.232918
0.232918
0.232918
0.232918
0.232918
0.232918
0.232918
0.232918
0.232918
0.232918
0.232918
0.232918
0.232918
0.232918
0.232918
0.221947344092
3.11947847779e-05
4.96025620944e-07
1.7627081695e-07
1.42404426891e-07
1.38439526533e-07
1.38365712886e-07
1.35303314681e-07
1.30350911616e-07
1.25189499652e-07
1.20225755451e-07
1.1564133906e-07
1.11374473163e-07
1.07347849524e-07
1.03632835256e-07
1.00112236724e-07
9.68590324509e-08
9.37544986735e-08
9.0885370961e-08
8.813563569e-08
8.55867575556e-08
8.31316506428e-08
8.08527472784e-08
7.86487181352e-08
7.65579959893e-08
7.46157454857e-08
7.27246632357e-08
7.09246504539e-08
6.92565657377e-08
6.76217712338e-08
6.60654831042e-08
6.46249652264e-08
6.3211427165e-08
6.18661843087e-08
6.05866241818e-08
5.94164208258e-08
5.8265166457e-08
5.71761993958e-08
5.61489631398e-08
5.51829265968e-08
5.43217553812e-08
5.34761810798e-08
5.26907126955e-08
5.19650051056e-08
5.12985242495e-08
5.06920495585e-08
5.01890304766e-08
4.9698849765e-08
4.92680200571e-08
4.88937775596e-08
4.85771239876e-08
4.83167196501e-08
4.81112745545e-08
4.79601544436e-08
4.78627803917e-08
0.232918
0.232918
0.232918
0.232918
0.232918
0.232918
0.232918
0.232918
0.232918
0.232918
0.232918
0.232918
0.232918
0.232918
0.232917076326
0.0182484959466
7.66654972809e-06
2.47473737631e-07
1.61529520319e-07
1.48874274014e-07
1.49167523154e-07
1.47538671193e-07
1.42635461901e-07
1.36710343249e-07
1.30950950811e-07
1.25518152474e-07
1.20527269245e-07
1.15898736296e-07
1.11538245246e-07
1.07524585275e-07
1.03725355517e-07
1.00224961959e-07
9.69432711428e-08
9.38099475659e-08
9.09176085595e-08
8.81404688682e-08
8.55192173289e-08
8.30904608679e-08
8.07462493533e-08
7.85735431254e-08
7.6463653858e-08
7.44583759001e-08
7.26043941872e-08
7.07923908619e-08
6.90696427839e-08
6.74766072483e-08
6.59132691435e-08
6.44290443133e-08
6.30678917291e-08
6.1727665275e-08
6.04577006928e-08
5.92559522189e-08
5.81668752598e-08
5.70962649298e-08
5.60904944178e-08
5.51491709622e-08
5.42717880341e-08
5.35040326914e-08
5.27516798481e-08
5.20623689624e-08
5.14351188669e-08
5.08682755197e-08
5.03617035087e-08
4.99149277314e-08
4.95716514348e-08
4.92428101423e-08
4.89709582704e-08
4.87561608623e-08
4.85975685611e-08
4.84937205448e-08
0.232918
0.232918
0.232918
0.232918
0.232918
0.232918
0.232918
0.232918
0.232918
0.232918
0.232918
0.232918
0.232918
0.232917965716
0.216273743315
2.88955251886e-05
5.2448985468e-07
1.93435773206e-07
1.61400065286e-07
1.59557216094e-07
1.59904576199e-07
1.55843949676e-07
1.4935847947e-07
1.42691983505e-07
1.36403024375e-07
1.30526908817e-07
1.25148636507e-07
1.20164340671e-07
1.15486567361e-07
1.1118416165e-07
1.07174340529e-07
1.03382023643e-07
9.98804754739e-08
9.65497871787e-08
9.34713004606e-08
9.05238930266e-08
8.78010525985e-08
8.51768434769e-08
8.27491281099e-08
8.04032445862e-08
7.81806209738e-08
7.61238149288e-08
7.41214622177e-08
7.2270348464e-08
7.04630115111e-08
6.8745089486e-08
6.71653208748e-08
6.56139952821e-08
6.41435232099e-08
6.27483262803e-08
6.14787096095e-08
6.02300489115e-08
5.905145116e-08
5.79424952304e-08
5.69501970363e-08
5.59763525298e-08
5.50694270231e-08
5.42310216398e-08
5.34555558675e-08
5.2744493559e-08
5.21446203044e-08
5.15590673818e-08
5.10370572914e-08
5.05756233475e-08
5.01759390351e-08
4.98350162597e-08
4.95538960712e-08
4.93305272265e-08
4.91635941771e-08
4.90527133014e-08
0.232918
0.232918
0.232918
0.232918
0.232918
0.232918
0.232918
0.232918
0.232918
0.232918
0.232918
0.232918
0.232918
0.232913389369
0.000976896615619
6.28468841803e-06
2.56721810447e-07
1.79558165601e-07
1.70646690955e-07
1.72260759067e-07
1.69790778904e-07
1.63224204917e-07
1.55568165685e-07
1.48253465562e-07
1.41475134423e-07
1.3518264399e-07
1.29429627126e-07
1.24112894701e-07
1.19185715132e-07
1.14559994221e-07
1.10304013959e-07
1.06338335894e-07
1.02581484006e-07
9.91150308659e-08
9.58095053952e-08
9.27609596575e-08
8.98384847375e-08
8.71361844671e-08
8.45349933936e-08
8.2129933904e-08
7.98010177724e-08
7.75954707932e-08
7.55595907011e-08
7.35753717925e-08
7.1692400616e-08
6.9957300162e-08
6.82610105874e-08
6.66516635638e-08
6.51796071174e-08
6.37341037942e-08
6.23682221589e-08
6.10811033372e-08
5.9914481335e-08
5.87730781262e-08
5.77011159227e-08
5.66998030232e-08
5.58173526623e-08