/*--------------------------------*- C++ -*----------------------------------*\
| =========                 |                                                 |
| \\      /  F ield         | foam-extend: Open Source CFD                    |
|  \\    /   O peration     | Version:     4.1                                |
|   \\  /    A nd           | Web:         http://www.foam-extend.org         |
|    \\/     M anipulation  |                                                 |
\*---------------------------------------------------------------------------*/
FoamFile
{
    version     2.0;
    format      ascii;
    class       volScalarField;
    location    "0.0009";
    object      O2Plus;
}
// * * * * * * * * * * * * * * * * * * * * * * * * * * * * * * * * * * * * * //

dimensions      [0 0 0 0 0 0 0];

internalField   nonuniform List<scalar> 
8400
(
2.93247975693e-108
2.93247975694e-108
2.93247975696e-108
2.93247975697e-108
2.93247975699e-108
2.932479757e-108
2.93247975701e-108
2.93247975703e-108
2.93247975704e-108
2.93247975705e-108
2.93247975707e-108
2.93247975708e-108
2.93247975709e-108
2.93247975711e-108
2.93247975712e-108
2.93247975713e-108
2.93247975739e-108
2.93247977146e-108
2.93248057622e-108
2.93252493999e-108
2.93501559084e-108
2.98302353071e-108
2.74362545673e-42
2.05903961542e-10
1.21231503929e-07
2.0925692599e-07
2.30891556093e-07
2.40858590813e-07
2.50531391086e-07
2.56663782726e-07
2.58681166241e-07
2.58735917343e-07
2.58261871613e-07
2.57685295571e-07
2.57124057775e-07
2.56598964617e-07
2.56109764982e-07
2.556494014e-07
2.5521147657e-07
2.54789876061e-07
2.54379918402e-07
2.53975773893e-07
2.5357267293e-07
2.53166742032e-07
2.52754327988e-07
2.52332226017e-07
2.51898124158e-07
2.51523100842e-07
2.51057824704e-07
2.50574074328e-07
2.50072430085e-07
2.49553117258e-07
2.49017422042e-07
2.48467348757e-07
2.47905647226e-07
2.47334045387e-07
2.46758304772e-07
2.46184352657e-07
2.45618119993e-07
2.45067507889e-07
2.4453812571e-07
2.44037043516e-07
2.43571301373e-07
2.43146777117e-07
2.42770783269e-07
2.42449867148e-07
2.4218913163e-07
2.41992752919e-07
2.41864201121e-07
2.41917266509e-07
2.93247975224e-108
2.93247975224e-108
2.93247975225e-108
2.93247975225e-108
2.93247975226e-108
2.93247975227e-108
2.93247975227e-108
2.93247975228e-108
2.93247975228e-108
2.93247975229e-108
2.93247975229e-108
2.9324797523e-108
2.9324797523e-108
2.93247975231e-108
2.93247975231e-108
2.93247975234e-108
2.9324797535e-108
2.93247981974e-108
2.93248359757e-108
2.93269018835e-108
2.94409798712e-108
3.09023322107e-108
7.8082312605e-22
2.72031189574e-08
1.76172168595e-07
2.19510518593e-07
2.32448732008e-07
2.41119794333e-07
2.49701920523e-07
2.54394391811e-07
2.55893576542e-07
2.56165184843e-07
2.5614329812e-07
2.56026097552e-07
2.5587658618e-07
2.55710235791e-07
2.5552944765e-07
2.55259684429e-07
2.55050044985e-07
2.5482706953e-07
2.54587605752e-07
2.54330046908e-07
2.54052838359e-07
2.53754379573e-07
2.53433186776e-07
2.53088252852e-07
2.5271865721e-07
2.52323768918e-07
2.51901047779e-07
2.51453049988e-07
2.50980736589e-07
2.50486072888e-07
2.49972542219e-07
2.49441627143e-07
2.48897005408e-07
2.48341437928e-07
2.47780630035e-07
2.47221499661e-07
2.46670423766e-07
2.46135485237e-07
2.45622083974e-07
2.45137065321e-07
2.44687133824e-07
2.44277142642e-07
2.4391500169e-07
2.43606105022e-07
2.43355001898e-07
2.43165337634e-07
2.43039939182e-07
2.43062064255e-07
2.93247974992e-108
2.93247974992e-108
2.93247974993e-108
2.93247974993e-108
2.93247974993e-108
2.93247974994e-108
2.93247974994e-108
2.93247974994e-108
2.93247974995e-108
2.93247974995e-108
2.93247974995e-108
2.93247974996e-108
2.93247974996e-108
2.93247974996e-108
2.93247974997e-108
2.93247975008e-108
2.93247975627e-108
2.93248011182e-108
2.93249996265e-108
2.93361336583e-108
2.96370974418e-108
1.05287244286e-42
5.69221983853e-12
8.67972033432e-08
2.00861018324e-07
2.26167001166e-07
2.34753109366e-07
2.43575171663e-07
2.50538510969e-07
2.5370028776e-07
2.54683754901e-07
2.54890985841e-07
2.54969187931e-07
2.54984660699e-07
2.54966173272e-07
2.5484505526e-07
2.54772901742e-07
2.5467569598e-07
2.5455234745e-07
2.54402237834e-07
2.54224722906e-07
2.54018909347e-07
2.53784294158e-07
2.5352040736e-07
2.5322675717e-07
2.52902959354e-07
2.52546878857e-07
2.52160900042e-07
2.51745824935e-07
2.51302992879e-07
2.50835660148e-07
2.50344942677e-07
2.49833691542e-07
2.4930491174e-07
2.4876142413e-07
2.48210179673e-07
2.47656657798e-07
2.47107918305e-07
2.46569612618e-07
2.46047609399e-07
2.45548460506e-07
2.45077032188e-07
2.44640924513e-07
2.44246384386e-07
2.43898760153e-07
2.43602768084e-07
2.43362374937e-07
2.4318094504e-07
2.43060208197e-07
2.43069108939e-07
2.93247974847e-108
2.93247974847e-108
2.93247974847e-108
2.93247974848e-108
2.93247974848e-108
2.93247974848e-108
2.93247974848e-108
2.93247974849e-108
2.93247974849e-108
2.93247974849e-108
2.93247974849e-108
2.9324797485e-108
2.9324797485e-108
2.9324797485e-108
2.93247974851e-108
2.93247974904e-108
2.93247977927e-108
2.93248151748e-108
2.93257758727e-108
2.93798342006e-108
3.02319694194e-108
1.13961230128e-28
9.24415463717e-09
1.54130971559e-07
2.14355243138e-07
2.29926700834e-07
2.38095272035e-07
2.46926436114e-07
2.52469266466e-07
2.54441986463e-07
2.54986860604e-07
2.55146177943e-07
2.55185048601e-07
2.55180060912e-07
2.55145747213e-07
2.55009897734e-07
2.54923208433e-07
2.54811551887e-07
2.54673158308e-07
2.54507082512e-07
2.54312445119e-07
2.54088460645e-07
2.538342447e-07
2.53549539588e-07
2.53234029489e-07
2.5288762746e-07
2.52509473503e-07
2.52100158772e-07
2.5166199336e-07
2.5119661373e-07
2.50707143103e-07
2.50196638319e-07
2.49667497592e-07
2.49123865241e-07
2.48568046626e-07
2.48006764808e-07
2.47445950941e-07
2.46891873959e-07
2.46351676972e-07
2.45830230596e-07
2.45333662216e-07
2.44867770984e-07
2.44437002205e-07
2.44048339746e-07
2.43706654005e-07
2.43416070311e-07
2.43180035742e-07
2.43001123976e-07
2.42881287903e-07
2.42880925196e-07
2.93247974747e-108
2.93247974747e-108
2.93247974747e-108
2.93247974747e-108
2.93247974747e-108
2.93247974748e-108
2.93247974748e-108
2.93247974748e-108
2.93247974748e-108
2.93247974748e-108
2.93247974748e-108
2.93247974749e-108
2.93247974749e-108
2.93247974749e-108
2.93247974752e-108
2.9324797492e-108
2.93247984479e-108
2.93248529493e-108
2.93278351726e-108
2.94913784109e-108
3.14511722979e-108
3.09209409894e-16
4.09482852302e-08
1.8525896008e-07
2.2229095142e-07
2.33787802531e-07
2.42698881764e-07
2.51075599884e-07
2.55246515238e-07
2.56506099228e-07
2.56700861271e-07
2.56687744385e-07
2.56604427486e-07
2.56493435425e-07
2.56362073178e-07
2.56208102728e-07
2.55957983301e-07
2.5576050609e-07
2.55541138303e-07
2.55297876554e-07
2.55030279592e-07
2.54736329481e-07
2.54415161533e-07
2.54066131714e-07
2.53688663476e-07
2.53282680741e-07
2.52848644947e-07
2.52387321774e-07
2.51898491562e-07
2.51384239049e-07
2.50847955731e-07
2.5029307964e-07
2.4972480733e-07
2.49145947387e-07
2.48560870205e-07
2.47973268522e-07
2.47388202074e-07
2.46812979175e-07
2.46253746855e-07
2.45717826643e-07
2.45210081304e-07
2.44735653955e-07
2.44299869138e-07
2.43907040803e-07
2.4356130705e-07
2.43267587996e-07
2.43029034533e-07
2.42847908402e-07
2.42725883835e-07
2.42717492224e-07
2.93247974673e-108
2.93247974673e-108
2.93247974673e-108
2.93247974673e-108
2.93247974674e-108
2.93247974674e-108
2.93247974674e-108
2.93247974674e-108
2.93247974674e-108
2.93247974674e-108
2.93247974675e-108
2.93247974675e-108
2.93247974675e-108
2.93247974675e-108
2.93247974686e-108
2.93247975286e-108
2.93248009868e-108
2.93249945727e-108
2.93358608254e-108
2.9635097243e-108
1.01500260703e-42
5.02544454205e-12
8.55518711635e-08
2.01084404119e-07
2.27889608261e-07
2.38166430714e-07
2.4819965799e-07
2.55778938627e-07
2.58841016965e-07
2.59540284482e-07
2.59444579517e-07
2.59237385534e-07
2.58984659169e-07
2.58715163455e-07
2.58433964038e-07
2.58140446533e-07
2.57834279876e-07
2.57512741895e-07
2.57173185246e-07
2.5673970761e-07
2.56358000826e-07
2.55955705218e-07
2.55530964959e-07
2.55083075945e-07
2.54612577798e-07
2.54117932308e-07
2.5359948687e-07
2.53057812975e-07
2.52494160813e-07
2.51910335648e-07
2.51308764584e-07
2.50690149389e-07
2.50061317197e-07
2.49426467887e-07
2.48792414167e-07
2.48236889679e-07
2.47614430607e-07
2.47004187766e-07
2.46412455797e-07
2.45846834176e-07
2.45312859337e-07
2.44816415515e-07
2.44362055389e-07
2.43953863285e-07
2.43596097455e-07
2.43292625875e-07
2.43046128093e-07
2.42858430329e-07
2.42731079318e-07
2.42716667581e-07
2.93247974617e-108
2.93247974617e-108
2.93247974617e-108
2.93247974617e-108
2.93247974617e-108
2.93247974618e-108
2.93247974618e-108
2.93247974618e-108
2.93247974618e-108
2.93247974618e-108
2.93247974618e-108
2.93247974618e-108
2.93247974618e-108
2.93247974619e-108
2.93247974652e-108
2.93247976537e-108
2.93248085693e-108
2.93254169227e-108
2.93598549335e-108
2.99698089441e-108
6.75354550851e-30
1.47082247913e-09
1.31944446129e-07
2.12017846723e-07
2.32713375272e-07
2.43579083668e-07
2.54265080491e-07
2.60907384183e-07
2.63077279922e-07
2.6328458021e-07
2.62927498521e-07
2.62517776655e-07
2.62078679423e-07
2.61631809926e-07
2.61179959509e-07
2.60723526685e-07
2.60259009849e-07
2.59784824659e-07
2.59295913638e-07
2.58793679791e-07
2.58276679092e-07
2.57744814383e-07
2.5719616048e-07
2.56629173245e-07
2.56041840839e-07
2.55433726798e-07
2.54806815608e-07
2.5416261516e-07
2.5350303124e-07
2.52828707687e-07
2.52141876146e-07
2.51445651862e-07
2.50744218379e-07
2.50040773896e-07
2.49338831077e-07
2.48645362956e-07
2.47966081371e-07
2.47307271741e-07
2.466732656e-07
2.46069682961e-07
2.45499655511e-07
2.44970401965e-07
2.44487014028e-07
2.44053917109e-07
2.43675553672e-07
2.4335519189e-07
2.43094799955e-07
2.42896284153e-07
2.42760937436e-07
2.4273950272e-07
2.93247974573e-108
2.93247974573e-108
2.93247974573e-108
2.93247974573e-108
2.93247974573e-108
2.93247974573e-108
2.93247974574e-108
2.93247974574e-108
2.93247974574e-108
2.93247974574e-108
2.93247974574e-108
2.93247974574e-108
2.93247974574e-108
2.93247974576e-108
2.93247974668e-108
2.93247979927e-108
2.93248280814e-108
2.93264812072e-108
2.94183704885e-108
3.06649938598e-108
4.28072409343e-22
2.05407641039e-08
1.70259401753e-07
2.20291673074e-07
2.37821196724e-07
2.50016850585e-07
2.60812145385e-07
2.66353140976e-07
2.67684863546e-07
2.67567527257e-07
2.66962739145e-07
2.66345609135e-07
2.65715481527e-07
2.650837669e-07
2.64451180806e-07
2.63816396564e-07
2.63178234503e-07
2.62533098953e-07
2.61879714093e-07
2.61218237823e-07
2.6054914137e-07
2.59869515389e-07
2.59177468054e-07
2.58469289732e-07
2.57747562151e-07
2.57013025469e-07
2.56266507461e-07
2.55507595077e-07
2.54735266763e-07
2.53952773284e-07
2.5316385562e-07
2.5237373487e-07
2.5158400823e-07
2.50798703257e-07
2.50022445485e-07
2.49261215665e-07
2.4851816653e-07
2.47871028072e-07
2.47178789143e-07
2.46522958855e-07
2.45909501243e-07
2.45342109053e-07
2.44825263503e-07
2.44362168546e-07
2.43956611225e-07
2.43612853613e-07
2.43333299077e-07
2.43119583164e-07
2.4297293664e-07
2.42942922022e-07
2.93247974538e-108
2.93247974538e-108
2.93247974538e-108
2.93247974538e-108
2.93247974538e-108
2.93247974538e-108
2.93247974538e-108
2.93247974538e-108
2.93247974538e-108
2.93247974538e-108
2.93247974539e-108
2.93247974539e-108
2.93247974539e-108
2.93247974542e-108
2.93247974745e-108
2.93247986209e-108
2.9324863407e-108
2.93283815772e-108
2.95182384594e-108
3.1756960453e-108
6.5172624285e-15
4.68527329362e-08
1.88927766539e-07
2.27447717132e-07
2.4371375469e-07
2.5738440992e-07
2.679717062e-07
2.72300415593e-07
2.72938373945e-07
2.72433460232e-07
2.71564062797e-07
2.70714430471e-07
2.69861571019e-07
2.69016945155e-07
2.68179956359e-07
2.67345181645e-07
2.66511232461e-07
2.65679474181e-07
2.64848582649e-07
2.64015605878e-07
2.63178295392e-07
2.62335781209e-07
2.61483619525e-07
2.60623386555e-07
2.59757426597e-07
2.58959704467e-07
2.58079668981e-07
2.57187825842e-07
2.56290924477e-07
2.55393077044e-07
2.54495720999e-07
2.53600508769e-07
2.52710991788e-07
2.51832486368e-07
2.50967089225e-07
2.50121447762e-07
2.49301024597e-07
2.485119695e-07
2.47758896381e-07
2.47047005747e-07
2.46380577507e-07
2.45765270489e-07
2.45204803722e-07
2.44704827235e-07
2.44269167481e-07
2.43901293973e-07
2.43602708647e-07
2.43373533404e-07
2.43214789721e-07
2.43175458927e-07
2.93247974509e-108
2.93247974509e-108
2.93247974509e-108
2.93247974509e-108
2.93247974509e-108
2.93247974509e-108
2.93247974509e-108
2.93247974509e-108
2.93247974509e-108
2.9324797451e-108
2.9324797451e-108
2.9324797451e-108
2.9324797451e-108
2.93247974521e-108
2.9324797516e-108
2.93248011698e-108
2.93250044855e-108
2.93363353837e-108
2.96453343836e-108
1.04265592495e-42
5.13164123663e-12
8.43962481885e-08
2.02522013808e-07
2.34284853876e-07
2.50947916569e-07
2.65754241089e-07
2.75466538302e-07
2.78660377641e-07
2.78682875043e-07
2.77795137102e-07
2.76715131358e-07
2.75609569143e-07
2.74513685198e-07
2.73436117324e-07
2.72373299179e-07
2.71323034977e-07
2.70280883013e-07
2.69244316798e-07
2.68216644546e-07
2.67195035872e-07
2.66172920763e-07
2.65150252436e-07
2.64129698748e-07
2.63109242249e-07
2.6208709581e-07
2.61062989838e-07
2.60034699678e-07
2.59004368582e-07
2.5797698909e-07
2.56954332564e-07
2.55935696373e-07
2.54923414247e-07
2.5392467262e-07
2.52946060933e-07
2.52063322864e-07
2.51132304507e-07
2.50231836308e-07
2.49367444352e-07
2.48544855568e-07
2.47770113824e-07
2.47045789295e-07
2.46378429707e-07
2.45772488559e-07
2.4523234119e-07
2.44762130356e-07
2.44364230387e-07
2.44040689073e-07
2.43792472163e-07
2.4362030721e-07
2.43572982282e-07
2.93247974485e-108
2.93247974485e-108
2.93247974485e-108
2.93247974485e-108
2.93247974485e-108
2.93247974485e-108
2.93247974485e-108
2.93247974485e-108
2.93247974485e-108
2.93247974486e-108
2.93247974486e-108
2.93247974486e-108
2.93247974486e-108
2.93247974517e-108
2.93247976294e-108
2.93248078003e-108
2.9325369524e-108
2.93568354113e-108
2.99300413841e-108
3.42955930032e-42
6.62965424391e-10
1.26530131853e-07
2.13882320138e-07
2.41381945281e-07
2.59240564292e-07
2.74846900697e-07
2.83326184623e-07
2.85358022507e-07
2.84764970094e-07
2.8351920784e-07
2.82149227106e-07
2.80779319572e-07
2.79431363941e-07
2.78101486588e-07
2.76797381634e-07
2.7551606959e-07
2.74247934145e-07
2.72997852062e-07
2.71764100193e-07
2.70541809893e-07
2.69328953039e-07
2.68118963626e-07
2.66917165814e-07
2.65723793751e-07
2.64534114896e-07
2.634276702e-07
2.62246517259e-07
2.61069314255e-07
2.599023293e-07
2.58746042242e-07
2.57598076179e-07
2.56466333013e-07
2.55356122099e-07
2.54269767996e-07
2.5321147809e-07
2.52186613171e-07
2.51195582604e-07
2.50247940312e-07
2.4935171187e-07
2.48590734666e-07
2.4780769807e-07
2.47084794571e-07
2.46429632831e-07
2.45846132983e-07
2.45338064e-07
2.44908279407e-07
2.44558279891e-07
2.44289497698e-07
2.44102727899e-07
2.44046398334e-07
2.93247974465e-108
2.93247974465e-108
2.93247974465e-108
2.93247974465e-108
2.93247974465e-108
2.93247974465e-108
2.93247974465e-108
2.93247974465e-108
2.93247974465e-108
2.93247974465e-108
2.93247974465e-108
2.93247974466e-108
2.93247974467e-108
2.93247974559e-108
2.93247979746e-108
2.93248273584e-108
2.93264277112e-108
2.94144188374e-108
3.0628215895e-108
3.31928638533e-22
1.81369838199e-08
1.66821448481e-07
2.23959492035e-07
2.49342078531e-07
2.68880462285e-07
2.84181024946e-07
2.91162878769e-07
2.92200497553e-07
2.91063337741e-07
2.89485741426e-07
2.87831175707e-07
2.86185038761e-07
2.84574980366e-07
2.8299238401e-07
2.81441191857e-07
2.79920801985e-07
2.78425859971e-07
2.76952038093e-07
2.75573077042e-07
2.74142895701e-07
2.72727965773e-07
2.71326776807e-07
2.69935842191e-07
2.68560725481e-07
2.67198527255e-07
2.65843937244e-07
2.64504058398e-07
2.63178947445e-07
2.61867497324e-07
2.60572775055e-07
2.59372566739e-07
2.58118108115e-07
2.56886289818e-07
2.55687775728e-07
2.54525737955e-07
2.534027341e-07
2.52324379312e-07
2.51293136844e-07
2.50316715198e-07
2.49402329824e-07
2.48554573656e-07
2.47776990237e-07
2.47074004973e-07
2.46528537905e-07
2.45983300209e-07
2.4552036373e-07
2.45141868094e-07
2.44850141913e-07
2.44646591801e-07
2.44578728187e-07
2.93247974448e-108
2.93247974448e-108
2.93247974448e-108
2.93247974448e-108
2.93247974448e-108
2.93247974448e-108
2.93247974448e-108
2.93247974448e-108
2.93247974448e-108
2.93247974448e-108
2.93247974448e-108
2.93247974448e-108
2.93247974452e-108
2.93247974672e-108
2.93247986942e-108
2.93248671487e-108
2.93285411792e-108
2.95237832703e-108
3.18133916908e-108
5.82915516441e-15
4.49895710416e-08
1.89108052314e-07
2.33851686769e-07
2.58751290605e-07
2.79706092283e-07
2.94191461421e-07
2.99307869626e-07
2.99323884864e-07
2.97652048888e-07
2.95710130012e-07
2.93742247075e-07
2.91808574586e-07
2.89917520193e-07
2.88144589866e-07
2.8633761633e-07
2.84560116495e-07
2.82822802793e-07
2.81118767283e-07
2.7944128009e-07
2.77789306119e-07
2.76166165728e-07
2.74561306299e-07
2.72980722843e-07
2.71495918715e-07
2.69956635458e-07
2.68435357023e-07
2.66932642063e-07
2.65445553535e-07
2.63983358487e-07
2.62546275893e-07
2.61135523912e-07
2.59751950593e-07
2.58401630327e-07
2.57171807938e-07
2.55903109909e-07
2.54675903533e-07
2.53502213355e-07
2.52388006433e-07
2.51336058667e-07
2.50351008076e-07
2.4943767592e-07
2.48597465934e-07
2.47838149013e-07
2.47163696538e-07
2.46578020758e-07
2.46082868166e-07
2.45758127788e-07
2.45445389555e-07
2.45224449856e-07
2.45144073177e-07
2.93247974433e-108
2.93247974433e-108
2.93247974433e-108
2.93247974433e-108
2.93247974433e-108
2.93247974433e-108
2.93247974433e-108
2.93247974433e-108
2.93247974433e-108
2.93247974434e-108
2.93247974434e-108
2.93247974434e-108
2.93247974448e-108
2.93247975229e-108
2.93248019306e-108
2.93250436445e-108
2.9338327797e-108
2.96778754998e-108
1.22211855895e-42
7.64320626949e-12
8.61572394859e-08
2.05672643578e-07
2.44050216835e-07
2.69871249102e-07
2.9168088576e-07
3.04285473315e-07
3.07612605032e-07
3.06563914793e-07
3.04452303031e-07
3.02139448514e-07
2.99914704195e-07
2.97670877034e-07
2.9548519849e-07
2.93349210046e-07
2.91267273934e-07
2.89230570399e-07
2.87241109901e-07
2.85297600424e-07
2.83463779328e-07
2.81592413343e-07
2.79748415123e-07
2.77941112239e-07
2.76158860682e-07
2.74407540126e-07
2.72686016727e-07
2.70992422149e-07
2.69396468717e-07
2.67756118761e-07
2.66142221678e-07
2.64555406135e-07
2.63007049077e-07
2.61496421818e-07
2.60026841602e-07
2.58598812802e-07
2.57300217631e-07
2.55976807722e-07
2.54711549153e-07
2.53511335107e-07
2.52377167333e-07
2.5131655823e-07
2.50335561808e-07
2.49437712608e-07
2.48627444982e-07
2.47908229784e-07
2.47282389243e-07
2.46751354295e-07
2.46315762848e-07
2.45978851502e-07
2.45821792005e-07
2.45646147947e-07
2.9324797442e-108
2.9324797442e-108
2.9324797442e-108
2.9324797442e-108
2.93247974421e-108
2.93247974421e-108
2.93247974421e-108
2.93247974421e-108
2.93247974421e-108
2.93247974421e-108
2.93247974421e-108
2.93247974422e-108
2.93247974469e-108
2.93247977144e-108
2.9324812746e-108
2.93256269199e-108
2.93701520525e-108
3.01131402718e-108
4.33527928958e-29
3.16850894605e-09
1.34092693924e-07
2.20205932001e-07
2.55344039989e-07
2.82624688825e-07
3.04116462929e-07
3.14272847071e-07
3.15774367865e-07
3.13990419936e-07
3.11407527288e-07
3.08727737885e-07
3.06091708592e-07
3.03530660364e-07
3.01034069526e-07
2.9861238429e-07
2.9631807545e-07
2.94019558376e-07
2.91773214647e-07
2.89575458483e-07
2.87432086224e-07
2.85333384232e-07
2.8335034191e-07
2.81329514929e-07
2.79351820171e-07
2.77409134291e-07
2.7549761005e-07
2.73622746045e-07
2.71787529448e-07
2.70065974936e-07
2.68295986276e-07
2.66567828392e-07
2.64882457655e-07
2.6324100375e-07
2.61643456391e-07
2.60102488037e-07
2.58620267132e-07
2.57276571122e-07
2.55919703963e-07
2.54632867294e-07
2.53416804043e-07
2.52282327874e-07
2.51236625276e-07
2.50281390885e-07
2.49419053676e-07
2.48652470346e-07
2.47984501257e-07
2.47417766459e-07
2.46954624111e-07
2.46597038496e-07
2.46423149832e-07
2.46235892703e-07
2.93247974409e-108
2.93247974409e-108
2.93247974409e-108
2.93247974409e-108
2.93247974409e-108
2.93247974409e-108
2.9324797441e-108
2.9324797441e-108
2.9324797441e-108
2.9324797441e-108
2.9324797441e-108
2.93247974413e-108
2.93247974566e-108
2.93247983132e-108
2.93248458706e-108
2.93273874705e-108
2.94629229502e-108
3.11522584194e-108
5.14557591115e-19
2.76507053586e-08
1.77272135895e-07
2.34156018263e-07
2.68156827313e-07
2.96781386746e-07
3.16557447285e-07
3.2394253713e-07
3.23787421401e-07
3.21261669701e-07
3.18246820188e-07
3.15205870135e-07
3.12240068006e-07
3.09428739672e-07
3.066337253e-07
3.03909725356e-07
3.01269163512e-07
2.98697207416e-07
2.96266375297e-07
2.93823990285e-07
2.91441784065e-07
2.89108602546e-07
2.86832968663e-07
2.84602015023e-07
2.82501895132e-07
2.8036853293e-07
2.78270589262e-07
2.76221347257e-07
2.7421610094e-07
2.72252672955e-07
2.70412033661e-07
2.68541765377e-07
2.66719528752e-07
2.64949097867e-07
2.63230505228e-07
2.61574036403e-07
2.59986056978e-07
2.58545537732e-07
2.57094740829e-07
2.55722523692e-07
2.54432232258e-07
2.53229234861e-07
2.52115582234e-07
2.51099076801e-07
2.50183993114e-07
2.49371450289e-07
2.4866371452e-07
2.48064224762e-07
2.4757481923e-07
2.47276741359e-07
2.47003237896e-07
2.46884320331e-07
2.93247974399e-108
2.932479744e-108
2.932479744e-108
2.932479744e-108
2.932479744e-108
2.932479744e-108
2.932479744e-108
2.932479744e-108
2.932479744e-108
2.932479744e-108
2.932479744e-108
2.9324797441e-108
2.93247974978e-108
2.93248006617e-108
2.93249731653e-108
2.93342999613e-108
2.96249993997e-108
6.82288322621e-43
1.13906215144e-12
6.75421398868e-08
2.01204013325e-07
2.48679371779e-07
2.83209131553e-07
3.12103051867e-07
3.28924402921e-07
3.33269279595e-07
3.31665929576e-07
3.28472225187e-07
3.25030399337e-07
3.21693770991e-07
3.18383652329e-07
3.15179516269e-07
3.12069804885e-07
3.09127635483e-07
3.06199764324e-07
3.03354513225e-07
3.00590777945e-07
2.97897255479e-07
2.95348217379e-07
2.9279457524e-07
2.90301497078e-07
2.8786120352e-07
2.85482999753e-07
2.83235674659e-07
2.80956322204e-07
2.78733425108e-07
2.76563072707e-07
2.74439409224e-07
2.72458437598e-07
2.70442367369e-07
2.68483651349e-07
2.66587210624e-07
2.64753009975e-07
2.6298271268e-07
2.61289893229e-07
2.59755711371e-07
2.58217220266e-07
2.5676233551e-07
2.55393335849e-07
2.54118551668e-07
2.52945316423e-07
2.51874479977e-07
2.50908973796e-07
2.50053396922e-07
2.49391975199e-07
2.48758414425e-07
2.48237603556e-07
2.47831267336e-07
2.47539230917e-07
2.47405338276e-07
2.93247974391e-108
2.93247974391e-108
2.93247974391e-108
2.93247974391e-108
2.93247974391e-108
2.93247974391e-108
2.93247974391e-108
2.93247974391e-108
2.93247974391e-108
2.93247974391e-108
2.93247974392e-108
2.93247974433e-108
2.93247976723e-108
2.93248103985e-108
2.93254945197e-108
2.93625950932e-108
3.00122645791e-108
2.09524724467e-30
7.8612566765e-10
1.23089368178e-07
2.20925685942e-07
2.64387793566e-07
3.00309479113e-07
3.27846321754e-07
3.40700843412e-07
3.42182774188e-07
3.39321301687e-07
3.35535565172e-07
3.31733580609e-07
3.27959207338e-07
3.24311382792e-07
3.20844228996e-07
3.17428495766e-07
3.14112282361e-07
3.10907245101e-07
3.07864551983e-07
3.04836927753e-07
3.01900084243e-07
2.99038260227e-07
2.96334341344e-07
2.93622728115e-07
2.90978206721e-07
2.88405014519e-07
2.85970495123e-07
2.83512033645e-07
2.81119067643e-07
2.78786804215e-07
2.76515168487e-07
2.74382984129e-07
2.72234616849e-07
2.70148294099e-07
2.68123077592e-07
2.66175759894e-07
2.64304744029e-07
2.62594762601e-07
2.60881780459e-07
2.59250923385e-07
2.57715568529e-07
2.56277348049e-07
2.54939554974e-07
2.53705797315e-07
2.52581468696e-07
2.51650845394e-07
2.50750688304e-07
2.49965613269e-07
2.49298126928e-07
2.48749537262e-07
2.48320163635e-07
2.48009738332e-07
2.47860373967e-07
2.93247974383e-108
2.93247974383e-108
2.93247974383e-108
2.93247974383e-108
2.93247974383e-108
2.93247974383e-108
2.93247974383e-108
2.93247974383e-108
2.93247974383e-108
2.93247974384e-108
2.93247974387e-108
2.93247974562e-108
2.93247984157e-108
2.93248508382e-108
2.93276109121e-108
2.94719155689e-108
3.12511166365e-108
7.18469136793e-19
2.72010095857e-08
1.76709934713e-07
2.39809340614e-07
2.82227060786e-07
3.18744398171e-07
3.42971764684e-07
3.51278833875e-07
3.50393109893e-07
3.46630956633e-07
3.42346801393e-07
3.38092406434e-07
3.34030196681e-07
3.30040021951e-07
3.26193020358e-07
3.22538942626e-07
3.18937342474e-07
3.15449726746e-07
3.12148238491e-07
3.08868683293e-07
3.0569074387e-07
3.02598285536e-07
2.9967454645e-07
2.96755906109e-07
2.93907512911e-07
2.91142213839e-07
2.8852458168e-07
2.85900317547e-07
2.83342755534e-07
2.80848123958e-07
2.78430558027e-07
2.76160121167e-07
2.73874302492e-07
2.71664409519e-07
2.6953039868e-07
2.67475866872e-07
2.65584807872e-07
2.6369573455e-07
2.61893442563e-07
2.6018157354e-07
2.58569762726e-07
2.57063608394e-07
2.55664255636e-07
2.54463562842e-07
2.53286069331e-07
2.52224353791e-07
2.51281775621e-07
2.50460662079e-07
2.49759612638e-07
2.49182280313e-07
2.48729029578e-07
2.48399434892e-07
2.48233223184e-07
2.93247974376e-108
2.93247974376e-108
2.93247974376e-108
2.93247974376e-108
2.93247974376e-108
2.93247974376e-108
2.93247974376e-108
2.93247974376e-108
2.93247974376e-108
2.93247974377e-108
2.93247974392e-108
2.93247975245e-108
2.93248021885e-108
2.93250510267e-108
2.93382813217e-108
2.96864761666e-108
1.07469279165e-42
4.01323083616e-12
7.52834331326e-08
2.06579185224e-07
2.59567124989e-07
3.02859344738e-07
3.38114286607e-07
3.57081387015e-07
3.60936894792e-07
3.58036504141e-07
3.53490073132e-07
3.48752576009e-07
3.44182818684e-07
3.3971234685e-07
3.3545989337e-07
3.31294530058e-07
3.27273787004e-07
3.23458462071e-07
3.19699885037e-07
3.16070266731e-07
3.12620497209e-07
3.09210495235e-07
3.0589885982e-07
3.02761129289e-07
2.99641483279e-07
2.96607548837e-07
2.93653016543e-07
2.90866548161e-07
2.88071975089e-07
2.85356943428e-07
2.82720693286e-07
2.80242174438e-07
2.77753972154e-07
2.75343198213e-07
2.73016624668e-07
2.70774792618e-07
2.68697702608e-07
2.66626285248e-07
2.6464596061e-07
2.62762222344e-07
2.60979530892e-07
2.59302563125e-07
2.57820130221e-07
2.56358582837e-07
2.55008417834e-07
2.53780956451e-07
2.52676723951e-07
2.51695871883e-07
2.50840615303e-07
2.50112038166e-07
2.49510390444e-07
2.49036708322e-07
2.48690186471e-07
2.48508342561e-07
2.9324797437e-108
2.9324797437e-108
2.9324797437e-108
2.9324797437e-108
2.9324797437e-108
2.9324797437e-108
2.9324797437e-108
2.9324797437e-108
2.9324797437e-108
2.93247974372e-108
2.93247974453e-108
2.93247978839e-108
2.93248216582e-108
2.93260681352e-108
2.93916340286e-108
3.03887443563e-108
1.21111676752e-28
7.35838860852e-09
1.40790012309e-07
2.31326189176e-07
2.81544244413e-07
3.25429333725e-07
3.56810867758e-07
3.69413165993e-07
3.6936330784e-07
3.65047993951e-07
3.59944244585e-07
3.547875414e-07
3.49858314753e-07
3.45044091531e-07
3.40415378906e-07
3.36009918997e-07
3.31708172837e-07
3.27620676028e-07
3.23600603749e-07
3.19723024968e-07
3.16038760573e-07
3.12405510005e-07
3.08888129495e-07
3.05549692852e-07
3.02232342943e-07
2.99018661088e-07
2.95979639016e-07
2.92939646773e-07
2.89992865939e-07
2.87134322506e-07
2.8443963031e-07
2.81746522088e-07
2.79136181745e-07
2.76606717208e-07
2.74171464994e-07
2.71911330333e-07
2.69656379725e-07
2.67494637799e-07
2.65431411471e-07
2.63468256855e-07
2.61708588444e-07
2.59965903246e-07
2.58333297506e-07
2.56813004095e-07
2.55416716804e-07
2.54146858505e-07
2.53003114766e-07
2.5198934838e-07
2.51195946833e-07
2.50439303488e-07
2.49812504234e-07
2.49316950388e-07
2.4895229264e-07
2.48753604167e-07
2.93247974364e-108
2.93247974364e-108
2.93247974364e-108
2.93247974364e-108
2.93247974364e-108
2.93247974364e-108
2.93247974365e-108
2.93247974365e-108
2.93247974365e-108
2.93247974372e-108
2.93247974777e-108
2.93247996879e-108
2.93249188054e-108
2.93311869348e-108
2.95853075056e-108
2.41016100083e-43
5.01561809252e-14
4.80065219208e-08
1.93818016798e-07
2.55959676417e-07
3.06252555336e-07
3.48714986888e-07
3.73401997071e-07
3.79601238398e-07
3.76737488969e-07
3.71393163705e-07
3.65734184163e-07
3.60265951537e-07
3.5493809029e-07
3.49878032484e-07
3.44943912993e-07
3.40261832639e-07
3.356873591e-07
3.31347575915e-07
3.27085494817e-07
3.22977413343e-07
3.1907715043e-07
3.15228756117e-07
3.11511526622e-07
3.07981016662e-07
3.04490378444e-07
3.01107473837e-07
2.97900511018e-07
2.94713958991e-07
2.91625274504e-07
2.88710326291e-07
2.85804157965e-07
2.82988708926e-07
2.80267569098e-07
2.77724408759e-07
2.75187238909e-07
2.72745644839e-07
2.70401141384e-07
2.68155854597e-07
2.66111417566e-07
2.64082196226e-07
2.6216445027e-07
2.60360997314e-07
2.58676262798e-07
2.57114510626e-07
2.55769372263e-07
2.54459141504e-07
2.53278200179e-07
2.52228840749e-07
2.51312788861e-07
2.50529290056e-07
2.49879865285e-07
2.49364436942e-07
2.48982212342e-07
2.48764725779e-07
2.93247974359e-108
2.93247974359e-108
2.93247974359e-108
2.93247974359e-108
2.93247974359e-108
2.93247974359e-108
2.93247974359e-108
2.93247974359e-108
2.9324797436e-108
2.93247974412e-108
2.93247977207e-108
2.93248127372e-108
2.93255950278e-108
2.93664985001e-108
3.00670320373e-108
4.09901339098e-30
5.78790515669e-10
1.168223551e-07
2.25825806368e-07
2.82878779614e-07
3.33619489299e-07
3.71104552109e-07
3.87335344528e-07
3.88011836447e-07
3.83073847778e-07
3.76991561315e-07
3.70966196098e-07
3.65148808493e-07
3.59501210699e-07
3.54140934663e-07
3.48931356897e-07
3.43984067407e-07
3.39155860433e-07
3.34579188298e-07
3.30093722423e-07
3.25843440136e-07
3.2166839944e-07
3.17636283361e-07
3.1380626356e-07
3.10030848088e-07
3.06376820131e-07
3.02913246771e-07
2.9947996623e-07
2.96150873388e-07
2.9301425341e-07
2.89893104067e-07
2.86871432906e-07
2.83949156841e-07
2.81207981327e-07
2.78482544853e-07
2.75855422573e-07
2.7333300589e-07
2.71004768233e-07
2.68688573959e-07
2.66480547433e-07
2.64389655999e-07
2.62418241109e-07
2.60663184521e-07
2.58932152972e-07
2.57324736267e-07
2.55846067516e-07
2.54499348221e-07
2.53286075992e-07
2.52208338336e-07
2.51267709729e-07