/*--------------------------------*- C++ -*----------------------------------*\
| =========                 |                                                 |
| \\      /  F ield         | foam-extend: Open Source CFD                    |
|  \\    /   O peration     | Version:     4.1                                |
|   \\  /    A nd           | Web:         http://www.foam-extend.org         |
|    \\/     M anipulation  |                                                 |
\*---------------------------------------------------------------------------*/
FoamFile
{
    version     2.0;
    format      ascii;
    class       volScalarField;
    location    "0.0009";
    object      OPlus;
}
// * * * * * * * * * * * * * * * * * * * * * * * * * * * * * * * * * * * * * //

dimensions      [0 0 0 0 0 0 0];

internalField   nonuniform List<scalar> 
8400
(
6.45488965288e-195
6.45488965292e-195
6.45488965295e-195
6.45488965299e-195
6.45488965302e-195
6.45488965306e-195
6.45488965309e-195
6.45488965312e-195
6.45488965315e-195
6.45488965319e-195
6.45488965322e-195
6.45488965325e-195
6.45488965328e-195
6.45488965331e-195
6.45488965334e-195
6.45488965337e-195
6.45488965399e-195
6.45488968765e-195
6.45489161251e-195
6.4549977245e-195
6.46095501647e-195
6.57578336119e-195
1.06810594213e-72
4.03915055266e-12
0.000232990719635
0.0430017895363
0.0902508863235
0.119506201345
0.13344660625
0.139179293683
0.141191690774
0.141854690954
0.142114119243
0.142268939356
0.142391648118
0.142500987306
0.14260230143
0.142698526426
0.142791460081
0.14288255052
0.142972708463
0.143063268533
0.143155234451
0.143249390359
0.143346501042
0.143447241674
0.14355267159
0.143641822156
0.143757033599
0.143876945255
0.144002005787
0.144132189395
0.144267184887
0.144406455442
0.144549226342
0.144694871954
0.144841972428
0.144989072326
0.145134678137
0.145276950841
0.145414299276
0.145544872683
0.145666809024
0.145778480304
0.145878072743
0.145963991106
0.146034983814
0.146090001584
0.146128446452
0.146224905385
6.45488964166e-195
6.45488964168e-195
6.45488964169e-195
6.4548896417e-195
6.45488964172e-195
6.45488964173e-195
6.45488964174e-195
6.45488964176e-195
6.45488964177e-195
6.45488964178e-195
6.4548896418e-195
6.45488964181e-195
6.45488964182e-195
6.45488964183e-195
6.45488964185e-195
6.45488964191e-195
6.45488964469e-195
6.45488980313e-195
6.45489883917e-195
6.45539297572e-195
6.48267885079e-195
6.83221409568e-195
3.96621595836e-31
2.52941263378e-06
0.0114561501526
0.0635840921723
0.105009815472
0.127678985576
0.137671061604
0.141441472448
0.142641842664
0.143017079328
0.143170574031
0.14328010539
0.143381191227
0.143481035166
0.143580818435
0.143702503453
0.143804322027
0.143907774884
0.14401321508
0.144120954398
0.144231383305
0.144344938794
0.144462042822
0.144582959784
0.144707992492
0.144837327137
0.14497169082
0.14511046857
0.145253548572
0.145400559639
0.145550806557
0.145703880647
0.145858901763
0.14601517233
0.146171358655
0.146325861412
0.146477184818
0.146623387596
0.146763219141
0.146895033613
0.147017176764
0.147128548573
0.147227125653
0.147311641589
0.147381023302
0.147434422081
0.147471393361
0.14755079215
6.45488963612e-195
6.45488963613e-195
6.45488963614e-195
6.45488963614e-195
6.45488963615e-195
6.45488963616e-195
6.45488963617e-195
6.45488963618e-195
6.45488963619e-195
6.45488963619e-195
6.4548896362e-195
6.45488963621e-195
6.45488963622e-195
6.45488963622e-195
6.45488963624e-195
6.4548896365e-195
6.4548896513e-195
6.45489050173e-195
6.45493798216e-195
6.4576010884e-195
6.52958745812e-195
4.22614231756e-73
2.61211470499e-15
5.92076801059e-05
0.033233358822
0.0836807918606
0.117168948687
0.133548947819
0.140311569854
0.142616429223
0.143275702537
0.143495992849
0.143594604742
0.143673687263
0.143750071798
0.143848916115
0.143929013137
0.144012482238
0.144099166481
0.14418926082
0.144283022128
0.144380800002
0.144482838453
0.144589398737
0.144700729851
0.14481701738
0.144939003904
0.145066090561
0.145198206803
0.145335143419
0.145476335636
0.145621512121
0.145770045183
0.14592123534
0.146074420275
0.146228032167
0.146380817204
0.14653103699
0.146677430209
0.146818683097
0.146953240219
0.147080097283
0.147197309156
0.147303354182
0.147396947392
0.147476956793
0.147542429407
0.147592531863
0.147627113451
0.147694498798
6.45488963265e-195
6.45488963266e-195
6.45488963266e-195
6.45488963267e-195
6.45488963268e-195
6.45488963268e-195
6.45488963269e-195
6.45488963269e-195
6.4548896327e-195
6.4548896327e-195
6.45488963271e-195
6.45488963272e-195
6.45488963272e-195
6.45488963273e-195
6.45488963275e-195
6.45488963402e-195
6.45488970633e-195
6.45489386388e-195
6.45512364952e-195
6.46805365303e-195
6.67187259821e-195
1.41900765023e-46
1.34707282824e-07
0.00281094729178
0.0532785558004
0.0987129069498
0.124926991637
0.136820741567
0.141400853947
0.142872209075
0.143287861852
0.143432292616
0.143522985942
0.143603232294
0.143681932548
0.143782814971
0.14386439202
0.143948880751
0.144036343526
0.144127083967
0.144221494566
0.144319971171
0.144422938476
0.144530635018
0.144643314096
0.144761128399
0.144884458138
0.145013299136
0.145147169245
0.145285803202
0.145428615352
0.145574997334
0.145724453625
0.145876059998
0.146029255406
0.146182469484
0.146334318279
0.146483321132
0.146627803894
0.146766734756
0.146898678237
0.147022227461
0.14713637392
0.147239315334
0.147329910625
0.147407188498
0.147470336542
0.147518753493
0.147552118031
0.147612713963
6.45488963025e-195
6.45488963026e-195
6.45488963026e-195
6.45488963026e-195
6.45488963027e-195
6.45488963027e-195
6.45488963028e-195
6.45488963028e-195
6.45488963029e-195
6.45488963029e-195
6.4548896303e-195
6.4548896303e-195
6.45488963031e-195
6.45488963031e-195
6.45488963038e-195
6.45488963439e-195
6.45488986303e-195
6.45490289902e-195
6.45561620554e-195
6.49473348363e-195
6.96348904499e-195
3.12616582739e-22
7.41972260528e-06
0.0176608716576
0.0697202901367
0.108837038633
0.129473991395
0.138309528766
0.141530125725
0.142507354927
0.142825348283
0.142967784686
0.143076941857
0.14317840635
0.14327780271
0.14337695831
0.143497664576
0.14359856749
0.143701786987
0.143807354493
0.143915394769
0.144026755707
0.144141920855
0.144261310272
0.144385280572
0.144513983854
0.144647436318
0.14478556415
0.144928525902
0.145075872193
0.145226890014
0.145380958974
0.145537193453
0.145694948216
0.145853150344
0.146010767129
0.146166502139
0.146318718136
0.146466121613
0.146607103037
0.146740463122
0.146864862277
0.146978913861
0.14708156044
0.147171868566
0.147248721735
0.147311438405
0.14735950656
0.147392627863
0.147449745826
6.45488962849e-195
6.45488962849e-195
6.4548896285e-195
6.4548896285e-195
6.45488962851e-195
6.45488962851e-195
6.45488962851e-195
6.45488962852e-195
6.45488962852e-195
6.45488962852e-195
6.45488962853e-195
6.45488962853e-195
6.45488962853e-195
6.45488962854e-195
6.4548896288e-195
6.45488964316e-195
6.45489047032e-195
6.45493677336e-195
6.45753583056e-195
6.52910903825e-195
4.07559879472e-73
2.0507695148e-15
5.63540524672e-05
0.0325561921636
0.0825243877297
0.115732549527
0.132010967164
0.138710901288
0.141039924672
0.14174929486
0.142033009491
0.142197247076
0.142339671091
0.142475424918
0.142607880595
0.142738335464
0.142866910464
0.142995098624
0.14312324926
0.14327334281
0.143404881536
0.143539213932
0.143676469816
0.143816950325
0.143960513038
0.144107846174
0.144259018939
0.144414106124
0.144572832332
0.144734658779
0.144899102522
0.145066365216
0.145235195186
0.145404703738
0.145573893123
0.145720165257
0.145884286356
0.146043671321
0.146197813179
0.146345096573
0.146484008547
0.146612849901
0.146730326159
0.146835504048
0.146927586511
0.147005835714
0.147069721462
0.147118810442
0.147152746432
0.147208005609
6.45488962715e-195
6.45488962715e-195
6.45488962716e-195
6.45488962716e-195
6.45488962716e-195
6.45488962717e-195
6.45488962717e-195
6.45488962717e-195
6.45488962717e-195
6.45488962718e-195
6.45488962718e-195
6.45488962718e-195
6.45488962719e-195
6.4548896272e-195
6.45488962798e-195
6.45488967307e-195
6.45489228395e-195
6.45503779364e-195
6.46327488898e-195
6.60916744255e-195
8.75336553888e-48
8.68038724889e-10
0.000436563711116
0.0461862470874
0.0924852385321
0.120330587904
0.133288866033
0.138417425225
0.140142977612
0.140715785824
0.140999483862
0.141196746859
0.141378366265
0.141553026307
0.141723186642
0.141889451266
0.1420533743
0.142215608919
0.142377964323
0.142540079492
0.142702714067
0.142865805689
0.143030325233
0.143196985677
0.143366530457
0.143539254234
0.143714742893
0.143892728731
0.144072732707
0.144254811233
0.144438547764
0.144623469686
0.144808695774
0.1449936414
0.145177495414
0.145358423396
0.145534917812
0.145705455168
0.145869171139
0.146024796426
0.146171476341
0.146307402236
0.146431305053
0.146542140289
0.146638925039
0.146720910843
0.146787603202
0.146838555881
0.146873575699
0.146927432549
6.4548896261e-195
6.4548896261e-195
6.4548896261e-195
6.4548896261e-195
6.45488962611e-195
6.45488962611e-195
6.45488962611e-195
6.45488962612e-195
6.45488962612e-195
6.45488962612e-195
6.45488962612e-195
6.45488962613e-195
6.45488962613e-195
6.45488962617e-195
6.45488962837e-195
6.45488975415e-195
6.45489695097e-195
6.45529235577e-195
6.47727099951e-195
6.77544604846e-195
5.63260089348e-33
1.18979472573e-06
0.00787157554195
0.0585374720532
0.100158252391
0.123321970431
0.133691772396
0.137659710438
0.13899672163
0.139475354643
0.139778470453
0.140014442221
0.140236908178
0.140452464211
0.140662898405
0.140868984641
0.141071756425
0.141272618488
0.141472118193
0.141670342142
0.141867144309
0.142063813645
0.142261163659
0.142460649024
0.142661423523
0.142863139929
0.143065540867
0.143269411658
0.143475552629
0.143683076142
0.143890922805
0.144097390715
0.144302764581
0.144506388654
0.144707351535
0.144904712276
0.145097629962
0.145261941452
0.145439087163
0.14560659257
0.145763142388
0.145907887395
0.146039568375
0.146157335606
0.146260330722
0.146347564612
0.146418405963
0.146472389801
0.146509351119
0.146562771491
6.45488962525e-195
6.45488962526e-195
6.45488962526e-195
6.45488962526e-195
6.45488962526e-195
6.45488962526e-195
6.45488962527e-195
6.45488962527e-195
6.45488962527e-195
6.45488962527e-195
6.45488962528e-195
6.45488962528e-195
6.45488962528e-195
6.45488962537e-195
6.45488963021e-195
6.45488990442e-195
6.45490540034e-195
6.45574689795e-195
6.50115803531e-195
7.03662933758e-195
3.99736032312e-20
1.04826676428e-05
0.0190503750734
0.0693190493438
0.106047598752
0.125159926807
0.133405188964
0.136514814319
0.137580810358
0.138035157497
0.138373356684
0.138656579395
0.13892803442
0.139190861534
0.139446742521
0.139697707741
0.139944522733
0.140187358282
0.140426952914
0.140664017264
0.14089889112
0.141132506269
0.141366706826
0.14160109679
0.141835567411
0.142048499918
0.142282677703
0.142518168476
0.142753769905
0.142988110906
0.143220966135
0.143452215717
0.143681386284
0.143907394094
0.144129823746
0.144346834207
0.14455646374
0.144756966244
0.144948036844
0.145129295475
0.145299610073
0.145456377722
0.145597852501
0.145722973815
0.145832259565
0.145925532881
0.146001558099
0.146059222313
0.146098191029
0.146150819379
6.45488962456e-195
6.45488962457e-195
6.45488962457e-195
6.45488962457e-195
6.45488962457e-195
6.45488962457e-195
6.45488962458e-195
6.45488962458e-195
6.45488962458e-195
6.45488962458e-195
6.45488962458e-195
6.45488962459e-195
6.45488962459e-195
6.45488962486e-195
6.45488964014e-195
6.45489051409e-195
6.45493914437e-195
6.45764933834e-195
6.53155762053e-195
4.18064185513e-73
2.13848517881e-15
5.32693884028e-05
0.0308008415086
0.0786749332938
0.110379471174
0.126057810823
0.132641148996
0.135074081811
0.135960725943
0.136424514289
0.136788748527
0.137126117675
0.137450923179
0.137765381649
0.13807165429
0.138370715943
0.138664278689
0.138953370854
0.139237246829
0.139516872017
0.139793981576
0.140068932246
0.140341588386
0.14061261176
0.14088231936
0.141150900728
0.141419310021
0.141687120825
0.141953008309
0.142216812138
0.142478818767
0.142738172282
0.142993194197
0.143243578793
0.143467445816
0.143705489285
0.143934493644
0.144153547478
0.144361581248
0.144557596597
0.144740887724
0.144909564131
0.145062127913
0.145197553023
0.14531528515
0.145414987462
0.145496042375
0.145557836299
0.145600050388
0.145653838516
6.45488962399e-195
6.45488962399e-195
6.45488962399e-195
6.454889624e-195
6.454889624e-195
6.454889624e-195
6.454889624e-195
6.454889624e-195
6.45488962401e-195
6.45488962401e-195
6.45488962401e-195
6.45488962401e-195
6.45488962403e-195
6.45488962477e-195
6.45488966727e-195
6.45489210001e-195
6.45502645652e-195
6.46255266107e-195
6.59965559284e-195
1.31731669547e-72
8.35649012761e-11
0.000292937265186
0.0424571286813
0.0867471247168
0.113606206846
0.126247984229
0.131462249163
0.133394085081
0.134185229097
0.134673636084
0.135091032524
0.135484480673
0.135864196587
0.136234690533
0.136594513594
0.136945007847
0.137289250796
0.137626213859
0.137956666087
0.138281715343
0.138602144606
0.138920098347
0.139234329675
0.139545110891
0.139854484608
0.140139160695
0.140443834506
0.140745724194
0.14104420115
0.141339397462
0.141632421584
0.141920659716
0.142202704433
0.142478457503
0.142746889385
0.143006757991
0.143257684817
0.143497177194
0.143723965171
0.143913733484
0.144111777668
0.144294024867
0.144458910761
0.144605320972
0.144732146657
0.144838779848
0.144925232865
0.144991274105
0.145036751983
0.145091560361
6.45488962351e-195
6.45488962351e-195
6.45488962351e-195
6.45488962352e-195
6.45488962352e-195
6.45488962352e-195
6.45488962352e-195
6.45488962352e-195
6.45488962352e-195
6.45488962353e-195
6.45488962353e-195
6.45488962353e-195
6.45488962357e-195
6.45488962576e-195
6.45488974984e-195
6.45489677803e-195
6.45527956025e-195
6.47632581927e-195
6.76664926852e-195
1.29293808966e-34
8.44523707269e-07
0.00565322744901
0.0538531104023
0.093486358099
0.115762801996
0.125942169696
0.130017015164
0.131546637547
0.132284199474
0.13280636725
0.133278035443
0.133731506059
0.134168530499
0.134594771499
0.135009590096
0.135413451734
0.135808419893
0.136196471934
0.136556258505
0.136929545478
0.137296217662
0.137657857514
0.138015814885
0.138368517344
0.138717163685
0.139063229764
0.139404775308
0.139741833744
0.14007441462
0.140403232584
0.14070576954
0.141024166848
0.141335644678
0.141638744553
0.141932664765
0.142216317245
0.142488247506
0.142748048014
0.142993847519
0.143223992519
0.143437358804
0.143632956932
0.143810248441
0.143944545246
0.144081157284
0.14419568384
0.144288599847
0.144359622915
0.144408609396
0.144464552192
6.4548896231e-195
6.4548896231e-195
6.4548896231e-195
6.45488962311e-195
6.45488962311e-195
6.45488962311e-195
6.45488962311e-195
6.45488962311e-195
6.45488962311e-195
6.45488962312e-195
6.45488962312e-195
6.45488962312e-195
6.45488962321e-195
6.45488962846e-195
6.45488992196e-195
6.45490629532e-195
6.45578507254e-195
6.5024842773e-195
7.05012690827e-195
3.55250557139e-20
9.30945170222e-06
0.0168881578162
0.0643369993023
0.0988695836398
0.117024937504
0.125036496122
0.12825163931
0.129519223557
0.1302482961
0.130822924765
0.131357592883
0.131871838887
0.132371254057
0.132835197286
0.133307172629
0.133769596671
0.134218716557
0.134657775122
0.135088767814
0.135512053072
0.135926443274
0.136334874405
0.136737040461
0.137112098574
0.137503171168
0.137888225863
0.138267999983
0.138643716859
0.139012492086
0.139374752945
0.139730291588
0.140079310799
0.1404211629
0.140729173742
0.141049647195
0.141358319657
0.141653543252
0.141934031123
0.142198739963
0.142446328046
0.142675544072
0.142886278555
0.143076397995
0.143245043392
0.143391000733
0.143514559001
0.143591334321
0.143667230386
0.143718635326
0.143773879384
6.45488962275e-195
6.45488962275e-195
6.45488962275e-195
6.45488962275e-195
6.45488962276e-195
6.45488962276e-195
6.45488962276e-195
6.45488962276e-195
6.45488962276e-195
6.45488962276e-195
6.45488962276e-195
6.45488962277e-195
6.4548896231e-195
6.45488964179e-195
6.45489069604e-195
6.45494851066e-195
6.458125896e-195
6.53934100494e-195
4.87601396373e-73
4.24205916963e-15
5.54835352557e-05
0.0291189475151
0.0738016584528
0.102931889155
0.117429811694
0.123728917243
0.126233027058
0.127370101531
0.128100424687
0.128737351112
0.129319602259
0.12990083818
0.130463212757
0.131011171211
0.131543371787
0.132062015274
0.132567363028
0.133060973849
0.133523713682
0.133997683959
0.134463280846
0.134918380139
0.135367114281
0.135807826631
0.136240670073
0.136666390897
0.137065696161
0.137478631027
0.137883847348
0.138282161351
0.138670847846
0.13905052109
0.139420350168
0.139780645323
0.140104923826
0.140438034882
0.140755990316
0.141058187784
0.141344041797
0.141610948443
0.141856688707
0.142080898435
0.142283240111
0.142462936102
0.142618705832
0.142749481906
0.142855178463
0.142936316106
0.142967891024
0.143048114682
6.45488962245e-195
6.45488962245e-195
6.45488962245e-195
6.45488962245e-195
6.45488962245e-195
6.45488962245e-195
6.45488962245e-195
6.45488962246e-195
6.45488962246e-195
6.45488962246e-195
6.45488962246e-195
6.45488962248e-195
6.45488962362e-195
6.45488968758e-195
6.45489328294e-195
6.45508802208e-195
6.46573781727e-195
6.64345031149e-195
5.50610162247e-47
6.88687713234e-09
0.000423484392874
0.0417170688608
0.0818931008474
0.105814867094
0.117193284701
0.122066115876
0.124059907359
0.125076512548
0.125848039473
0.126550032249
0.127222509859
0.12787108612
0.128501225673
0.129111851173
0.129686208463
0.130263811576
0.130826879535
0.131377771164
0.131913924362
0.132438680384
0.132930890797
0.133438274592
0.133932631248
0.134417751706
0.134895623869
0.135364441878
0.135824293991
0.136253401125
0.136697222434
0.137129888311
0.137552031635
0.137963745324
0.138365118725
0.138752742037
0.139126556614
0.139461883797
0.1398039297
0.140127421556
0.140432488982
0.140716847329
0.140979179428
0.141219048495
0.141435192742
0.141626088
0.141790944072
0.141929676224
0.142042206679
0.142128746211
0.142163958208
0.142244413096
6.45488962218e-195
6.45488962218e-195
6.45488962218e-195
6.45488962219e-195
6.45488962219e-195
6.45488962219e-195
6.45488962219e-195
6.45488962219e-195
6.45488962219e-195
6.45488962219e-195
6.45488962219e-195
6.45488962226e-195
6.45488962594e-195
6.45488983081e-195
6.4549012059e-195
6.4555091214e-195
6.48792733145e-195
6.89199298417e-195
2.79511495076e-26
2.57134336432e-06
0.00869743565896
0.0537406006332
0.0885523964528
0.107613336482
0.116407681802
0.120114089161
0.121747401974
0.122730844155
0.123552483853
0.124324552277
0.125066195504
0.125764278122
0.126458983193
0.127134982093
0.127790075781
0.128428998539
0.129029486143
0.12963499723
0.130225768853
0.130804313474
0.131368692645
0.13192375013
0.132442625561
0.132973842947
0.133496190811
0.134006333858
0.134506007722
0.134997604558
0.135455561838
0.135924284943
0.136380645604
0.136824010867
0.137255748143
0.137672724761
0.138073391106
0.13843319729
0.138798954326
0.139143883129
0.139468240323
0.139770543458
0.140050285095
0.140305383219
0.140534322448
0.140736609313
0.140911646687
0.141059645889
0.141180195156
0.141246064193
0.141308690295
0.141366507527
6.45488962195e-195
6.45488962195e-195
6.45488962195e-195
6.45488962195e-195
6.45488962195e-195
6.45488962195e-195
6.45488962195e-195
6.45488962196e-195
6.45488962196e-195
6.45488962196e-195
6.45488962196e-195
6.45488962221e-195
6.45488963578e-195
6.45489039256e-195
6.45493165303e-195
6.45716249347e-195
6.52669377396e-195
2.74796148443e-73
1.65320476336e-16
2.69815629108e-05
0.0220588066155
0.0646299996505
0.0935582646198
0.108386904172
0.115059829748
0.117915983493
0.119322127996
0.120316452971
0.121201934362
0.12202573809
0.122840560056
0.123626590796
0.124390420546
0.125109892288
0.125829160602
0.126528388151
0.127206917569
0.127870435477
0.128495001758
0.129124742509
0.129739386909
0.130342856298
0.130931494918
0.13148563063
0.132052074045
0.132603896879
0.133143700344
0.133674422101
0.134166553351
0.134671837011
0.135162184576
0.135637779376
0.136098751797
0.136544300639
0.136971711397
0.137355815532
0.137744839335
0.138111787025
0.138456825106
0.138777938674
0.1390731055
0.139342120773
0.139583942421
0.139798169797
0.139958586263
0.140114992122
0.140241074637
0.140337166462
0.140403284068
0.140461655375
6.45488962174e-195
6.45488962174e-195
6.45488962174e-195
6.45488962174e-195
6.45488962175e-195
6.45488962175e-195
6.45488962175e-195
6.45488962175e-195
6.45488962175e-195
6.45488962175e-195
6.45488962177e-195
6.45488962275e-195
6.45488967752e-195
6.45489272146e-195
6.45505635377e-195
6.46393029724e-195
6.61932224258e-195
2.69593576931e-48
1.51539618706e-10
0.000214991364636
0.035963717842
0.0740397983455
0.0970211529499
0.108277083534
0.113270917952
0.115518238984
0.116821066632
0.117856440743
0.11879537382
0.119714056875
0.120598857982
0.121436868971
0.122266024095
0.123071779191
0.123852510828
0.124590469131
0.125330097111
0.126047608742
0.126749116778
0.127409433969
0.128076623604
0.12872752106
0.129363083143
0.129961140143
0.130571250593
0.131164601666
0.131744442001
0.132312093948
0.132841827464
0.13338046364
0.133902867959
0.134411333514
0.134901469491
0.135374343436
0.135802925726
0.136236450598
0.136648846996
0.137036805097
0.13740049785
0.137738585585
0.138050106379
0.138334270956
0.138564358086
0.138790052516
0.138984871001
0.139148863352
0.139281489941
0.139382616279
0.139452322265
0.139511390115
6.45488962156e-195
6.45488962156e-195
6.45488962156e-195
6.45488962156e-195
6.45488962156e-195
6.45488962156e-195
6.45488962156e-195
6.45488962156e-195
6.45488962156e-195
6.45488962157e-195
6.45488962164e-195
6.45488962583e-195
6.45488985534e-195
6.45490239407e-195
6.45556256553e-195
6.49007824131e-195
6.91563850086e-195
3.8616148176e-26
2.43318423496e-06
0.00721349985918
0.0492233242765
0.0814560801205
0.0991436107038
0.107479255027
0.111211667022
0.113032559494
0.114275482152
0.115363237262
0.116392629736
0.117364549103
0.118321800867
0.119246458943
0.120122368429
0.120991530063
0.121834699848
0.122631026107
0.123428243806
0.124200713599
0.124955778565
0.125667242693
0.126383461627
0.127083368798
0.127765308735
0.128408783759
0.129060061529
0.129694266282
0.130314819717
0.130918960489
0.13148361561
0.132057222814
0.13261247231
0.133149748351
0.133668668323
0.134143264235
0.134622363478
0.135078456473
0.135512474773
0.135921610884
0.136304045222
0.136659580736
0.136959543883
0.137257711799
0.137524947322
0.13776109212
0.137965201432
0.138137364773
0.138276675121
0.138383034152
0.138456561072
0.138516558481
6.45488962139e-195
6.45488962139e-195
6.45488962139e-195
6.45488962139e-195
6.45488962139e-195
6.4548896214e-195
6.4548896214e-195
6.4548896214e-195
6.4548896214e-195
6.45488962141e-195
6.45488962178e-195
6.45488964217e-195
6.45489075774e-195
6.4549502764e-195
6.45811477976e-195
6.54139816537e-195
4.28650300352e-73
1.40187627595e-15
3.56559269844e-05
0.0219756757245
0.0611004393641
0.0867230808569
0.0999257154492
0.106040260659
0.108867686393
0.110477417806
0.111732504751
0.112885184627
0.113967976392
0.115030659131
0.116038979249
0.117032152455
0.117993825126
0.118904622736
0.119808809588
0.120684271101
0.121514941232
0.122341976366
0.123148140474
0.123910394715
0.124674762623
0.125419056009
0.126147991456
0.126832829574
0.1275266488
0.128201782793
0.128859386694
0.129475398711
0.130100113066
0.130706150859
0.13129269341
0.131860243526
0.132381990192
0.132907198931
0.133409462568
0.133888481185
0.134342833656
0.134771566081
0.13514516616
0.135517331199
0.135859758033
0.136171033506
0.136450318222
0.136696592728
0.13690931972
0.137088151726
0.13723303005
0.137343835174
0.137420774586
0.137481406401
6.45488962124e-195
6.45488962124e-195
6.45488962124e-195
6.45488962124e-195
6.45488962125e-195
6.45488962125e-195
6.45488962125e-195
6.45488962125e-195
6.45488962125e-195
6.45488962129e-195
6.45488962322e-195
6.45488972813e-195
6.45489541461e-195
6.45519355467e-195
6.4708760085e-195
6.70937099233e-195
1.47489907055e-46
6.88983691545e-08
0.000531072212663
0.0371714659382
0.0706274750903
0.0901293675804
0.099695864596
0.10415255842
0.10640372083
0.107899843439
0.109179009801
0.110401702213
0.11155728689
0.11269156877
0.113784766266
0.114825032875
0.115848745148
0.116820964358
0.117783881391
0.11871635968
0.119601574942
0.120481143397
0.121336179536
0.12214674718
0.12295895296
0.123749050788
0.124493911381
0.125247318131
0.125978605252
0.12669204679
0.127361971743
0.128037374183
0.128693409425
0.129331505878
0.129949090941
0.130518409643
0.131092569233
0.131642539362
0.132167804314
0.132670836651
0.133117195596
0.133564250107
0.133981463378
0.134369368456
0.134724546061
0.135047375863
0.135337805569
0.135594633708
0.135787550013
0.135974229839
0.136124936406
0.136240725216
0.136321586582
0.136383347679
6.45488962111e-195
6.45488962111e-195
6.45488962111e-195
6.45488962111e-195
6.45488962111e-195
6.45488962111e-195
6.45488962111e-195
6.45488962111e-195
6.45488962112e-195
6.45488962129e-195
6.45488963099e-195
6.45489015962e-195
6.45491865089e-195
6.45641790065e-195
6.51720002247e-195
9.77878758957e-74
9.88201139677e-19
1.05374312075e-05
0.0128386811601
0.0509502334584
0.07763343506
0.0918681122106
0.0987009323026
0.101985801137
0.103857362572
0.105332596578
0.106684060549
0.107956252402
0.109200469403
0.110379331711
0.111540350995
0.112640572474
0.113725707297
0.114753807592
0.115772795331
0.116758951979
0.11769449883
0.118626430555
0.119530561993
0.120387326415
0.12124334856
0.122076109074
0.122864076269
0.123655408017
0.124424769875
0.1251494945
0.12587915921
0.126587296627
0.12727549705
0.127915366116
0.128560435945
0.129182171215
0.129781393182
0.130356837589
0.13087641772
0.131398595917
0.13189160245
0.1323560333
0.132788899269
0.133190735392
0.133530981428
0.133866333907
0.134166785602
0.134432168619
0.134661428018
0.134854349641
0.135010721985
0.135130865551
0.135215008881
0.135277177044
6.45488962098e-195
6.45488962098e-195
6.45488962099e-195
6.45488962099e-195
6.45488962099e-195
6.45488962099e-195
6.45488962099e-195
6.45488962099e-195
6.45488962101e-195
6.45488962226e-195
6.4548896891e-195
6.45489328083e-195
6.45508039392e-195
6.46486393812e-195
6.63242186023e-195
5.23023857103e-48
6.11458949387e-11
0.000148512252725
0.0292258623751
0.062192220853
0.0821038442163
0.0921998657895
0.0970455695865
0.0995905706888
0.101317014262
0.102819450425
0.104217090324
0.105558352742
0.106868732562
0.108113068894
0.109333042777
0.110492009182
0.111635012039
0.112716571624
0.113788457952
0.114803612606
0.11580944996
0.116787072797
0.117714227454
0.118637477963
0.119535498974
0.120385124438
0.121236690127
0.122066242478
0.122845702426
0.123629315387
0.124390172152
0.125129608063
0.125821052248
0.12651556616
0.127186326176
0.127833763092
0.128426817955
0.129023744142
0.129593206181
0.130132676673
0.130643622809
0.131093057536
0.131542092626
0.131956753047
0.132337230006
0.13268271376
0.132992994223
0.133266843366
0.13350435335
0.133673128999
0.133835790937
0.13396052414
0.134048233532
0.134111187202
6.45488962087e-195
6.45488962087e-195
6.45488962087e-195
6.45488962087e-195
6.45488962088e-195
6.45488962088e-195
6.45488962088e-195
6.45488962088e-195
6.45488962103e-195
6.45488962884e-195
6.45489003969e-195
6.45491154428e-195
6.45599957975e-195
6.50952988109e-195
7.11906391907e-195
1.76429763575e-20
5.30119270561e-06
0.0081631077406
0.0443682634348
0.0703817678036
0.0845629639131
0.0915409573166
0.0950411102329
0.0971493802588
0.0988112287806
0.100359524809
0.101819072596
0.103223860349
0.104595479092
0.105899771006
0.107179169449
0.108392227126
0.109587340441
0.110720276923
0.111840048314
0.112901552108
0.113954654311
0.114952229413
0.115944454832
0.116908185832
0.117821466054
0.118733013123
0.119620154236
0.120456458765
0.12129599618
0.122111463283
0.122877308214
0.123646943555
0.124391347505
0.125111354218
0.125778162695
0.126448398374
0.127091085415
0.127706080664
0.128293265519
0.128820410242
0.129347514987
0.129841555261
0.130302349196
0.130728910886
0.13112060419
0.131443717352
0.131763495505
0.132045472395
0.132289230631
0.132494552441
0.132661437663
0.13279034253
0.132881665436
0.132945680891
6.45488962077e-195
6.45488962077e-195
6.45488962077e-195
6.45488962077e-195
6.45488962077e-195
6.45488962077e-195
6.45488962077e-195
6.4548896208e-195
6.45488962208e-195
6.45488968971e-195
6.45489325239e-195
6.45507543972e-195
6.46439506359e-195
6.62639400037e-195
1.2756665864e-72
7.89757029743e-12
0.000111563534937
0.0255259112503
0.056599531648
0.0755119820323
0.0852377770847
0.0901099204891
0.0927909366097
0.0947048617061
0.0963811798399
0.0979839554978
0.0995039444769
0.100965277338
0.102394722822
0.103752643974
0.105084744454
0.106349121804
0.107570586127
0.108775713957
0.109915732869
0.111043977205
0.112138437077
0.11317598252
0.114206917254
0.115181876018
0.116155303241
0.117102529905
0.117994875282
0.118889180658
0.119759268417
0.120575615404
0.121397572318
0.122192523516
0.122931630911
0.12367639744
0.124393716741
0.12508468263
0.125716669252
0.12635093904
0.126954093036
0.127526715313
0.128067603598
0.128541773515
0.129014923667
0.129451315265
0.129850844765
0.130215146964
0.130541956235
0.13083145508
0.131048647931
0.131259782273
0.131430884579
0.131563552689
0.131658280167
0.13172338417
6.45488962067e-195
6.45488962068e-195
6.45488962068e-195
6.45488962068e-195
6.45488962068e-195
6.45488962068e-195
6.45488962068e-195
6.45488962087e-195
6.45488963079e-195
6.45489015066e-195
6.45491734666e-195
6.45630436461e-195
6.51700531419e-195
5.44665927453e-74
8.7603919022e-20
6.37854011839e-06
0.00775227642983
0.0414045409461
0.0652068774375
0.0782039388116
0.0847782630613
0.0882477019139
0.0904959451258
0.0923400091129
0.0940542012002
0.0957100425813
0.0972831256405
0.0987984362622
0.10027749485
0.101684300009
0.103042844861
0.104373367894
0.105638967709
0.106884413453
0.108066664835
0.109236290314
0.110342649568
0.111442753978
0.112483251531
0.11351779243
0.114522979908
0.11547209768
0.116422470105
0.117317665454
0.118214383996
0.119084719528
0.11989894049
0.120717392128
0.121509038797
0.122274101124
0.122978317876
0.123688021912
0.124367497317
0.125017226541
0.125602622048
0.126190310992
0.126743112767