/*--------------------------------*- C++ -*----------------------------------*\
| =========                 |                                                 |
| \\      /  F ield         | foam-extend: Open Source CFD                    |
|  \\    /   O peration     | Version:     4.1                                |
|   \\  /    A nd           | Web:         http://www.foam-extend.org         |
|    \\/     M anipulation  |                                                 |
\*---------------------------------------------------------------------------*/
FoamFile
{
    version     2.0;
    format      ascii;
    class       volScalarField;
    location    "0.0009";
    object      p;
}
// * * * * * * * * * * * * * * * * * * * * * * * * * * * * * * * * * * * * * //

dimensions      [1 -1 -2 0 0 0 0];

internalField   nonuniform List<scalar> 
8400
(
66.7281849943
66.7281849944
66.7281849944
66.7281849945
66.7281849945
66.7281849946
66.7281849946
66.7281849946
66.7281849947
66.7281849947
66.7281849948
66.7281849948
66.7281849949
66.7281849949
66.7281849949
66.728184995
66.7281849958
66.72818504
66.7281875654
66.728326788
66.7361429571
66.8868016398
150.76165571
1337.42012073
6498.43403288
27670.2108107
69666.2656709
134993.750186
202343.77223
245913.985796
263642.027963
268675.725669
269751.674777
269842.892901
269717.014844
269556.563105
269402.256768
269263.231257
269141.167856
269035.58909
268944.739737
268867.325615
268801.944991
268747.240615
268702.101541
268665.564598
268642.046961
268606.744256
268598.280733
268589.927145
268586.210636
268587.763402
268594.14138
268604.91998
268619.398507
268637.739349
268659.135882
268683.334179
268710.324534
268739.790972
268771.769894
268805.88637
268841.579396
268878.842559
268917.33897
268957.25544
268998.992716
269042.685976
269090.620968
269967.273512
66.7281849796
66.7281849796
66.7281849796
66.7281849797
66.7281849797
66.7281849797
66.7281849797
66.7281849797
66.7281849798
66.7281849798
66.7281849798
66.7281849798
66.7281849798
66.7281849798
66.7281849799
66.7281849799
66.7281849836
66.7281851915
66.728197047
66.728845371
66.7646453645
67.2232474605
470.86432588
2801.06321198
13445.4338423
40821.32486
93201.113397
163599.241681
224676.04919
257607.094502
269293.966041
272700.308959
273856.689894
274488.982022
274993.710724
275457.532665
275894.324547
276332.756194
276732.648609
277121.357053
277494.479942
277851.273856
278191.724276
278516.084259
278824.827297
279118.091766
279396.373917
279659.795453
279909.185273
280144.305043
280366.041952
280575.020234
280771.717908
280956.521049
281129.522817
281291.457629
281442.459661
281582.674264
281712.671642
281832.866195
281943.824347
282045.922582
282139.208227
282224.691394
282301.765157
282371.0543
282433.055799
282488.268763
282538.890764
283259.519371
66.7281849723
66.7281849724
66.7281849724
66.7281849724
66.7281849724
66.7281849724
66.7281849724
66.7281849724
66.7281849724
66.7281849724
66.7281849724
66.7281849725
66.7281849725
66.7281849725
66.7281849725
66.7281849728
66.7281849923
66.7281861081
66.728248404
66.7317424897
66.8261910482
98.2895216234
978.008968109
4849.02888455
22459.1344556
59769.2338421
122357.619782
192833.74938
242863.738314
264954.683229
271863.346055
273985.480319
274913.142119
275567.897759
276137.075343
276686.552299
277184.786646
277661.915299
278114.464343
278542.691997
278947.30176
279329.539241
279690.295137
280030.593486
280351.349573
280653.165813
280937.294237
281203.740472
281453.407306
281687.13876
281905.71783
282109.920256
282300.292957
282477.407953
282642.320465
282794.779826
282935.457356
283064.796858
283183.479581
283292.254402
283391.591284
283482.677621
283565.373239
283640.029654
283706.994993
283766.599903
283819.218098
283865.187896
283906.349146
284501.198443
66.7281849678
66.7281849678
66.7281849678
66.7281849678
66.7281849678
66.7281849678
66.7281849678
66.7281849678
66.7281849679
66.7281849679
66.7281849679
66.7281849679
66.7281849679
66.7281849679
66.7281849679
66.7281849696
66.7281850645
66.7281905193
66.7284920059
66.745456609
67.0128739777
256.879451836
2118.02672341
9685.38946525
33488.1677899
80834.3015052
149749.647028
215256.850015
253812.61709
268295.517295
272542.606468
273980.280814
274768.327908
275391.494865
275947.264111
276482.722404
276963.408089
277419.675
277848.222395
278249.515547
278624.86476
278975.834213
279304.254943
279611.338904
279898.369686
280166.267326
280416.166403
280648.984673
280865.344914
281066.223831
281252.465382
281425.035382
281585.127116
281733.405524
281871.133379
281997.885766
282113.898466
282219.702595
282316.125438
282404.237127
282484.686032
282557.697685
282624.04742
282683.275249
282735.974073
282782.622344
282823.623673
282859.33423
282891.171703
283406.311831
66.7281849646
66.7281849646
66.7281849647
66.7281849647
66.7281849647
66.7281849647
66.7281849647
66.7281849647
66.7281849647
66.7281849647
66.7281849647
66.7281849647
66.7281849647
66.7281849647
66.7281849648
66.7281849701
66.7281852701
66.7282023737
66.7291382561
66.7804614516
67.3954846462
641.298221718
3275.70500247
15856.0096305
45981.301478
101755.736308
172946.711433
230837.497684
259809.766401
269429.249492
272237.271568
273320.435651
274012.753476
274593.569279
275120.429469
275602.733519
276070.208022
276485.621272
276877.660077
277242.698999
277581.425234
277895.671497
278187.48195
278458.834375
278711.354381
278946.066454
279163.861324
279365.491129
279551.804915
279723.100092
279880.075355
280024.431911
280158.297133
280282.858298
280398.126747
280503.725091
280599.312466
280685.34957
280763.677096
280835.551544
280901.288675
280960.477377
281012.625813
281058.135315
281098.027779
281132.866235
281163.565144
281190.60303
281215.018489
281680.050646
66.7281849623
66.7281849623
66.7281849623
66.7281849623
66.7281849624
66.7281849624
66.7281849624
66.7281849624
66.7281849624
66.7281849624
66.7281849624
66.7281849624
66.7281849624
66.7281849624
66.7281849627
66.7281849816
66.7281860668
66.728246818
66.7316568692
66.8255633451
97.1770164867
971.023573907
4810.15025987
22306.830735
59415.7095874
121716.39476
191831.835893
241293.505129
262821.643383
269384.894842
271362.89911
272230.295502
272845.843254
273379.910858
273868.137583
274319.004542
274735.567799
275120.990876
275472.365338
275815.869359
276114.306676
276395.353887
276656.291227
276898.163905
277121.725193
277328.184142
277518.633949
277694.285566
277855.201451
278000.802309
278131.952774
278252.579036
278364.993442
278470.312116
278573.252551
278646.815431
278730.538901
278800.095585
278864.446131
278924.905629
278980.373204
279028.395692
279067.909252
279100.074703
279127.152391
279151.099685
279173.144637
279193.62162
279212.786262
279644.531992
66.7281849606
66.7281849606
66.7281849606
66.7281849606
66.7281849606
66.7281849606
66.7281849606
66.7281849606
66.7281849606
66.7281849606
66.7281849606
66.7281849606
66.7281849606
66.7281849606
66.7281849617
66.7281850208
66.7281884464
66.72837936
66.7391867085
66.9306026868
185.923920728
1633.84301777
7306.53703939
29647.5903829
73586.6612641
140339.913738
206975.460533
248108.664166
263985.325493
268578.641866
270043.477403
270769.530369
271324.314371
271814.137123
272262.693362
272676.299433
273057.85299
273409.107865
273732.599085
274029.624244
274303.084998
274555.071096
274787.456442
275001.456015
275198.469624
275379.710038
275546.001914
275698.669685
275838.155344
275964.705304
276078.895557
276182.62375
276277.750184
276366.074764
276448.08298
276522.39002
276588.277923
276646.212792
276697.91893
276744.501915
276786.632248
276823.144216
276853.992158
276879.764593
276901.339395
276919.403445
276934.374505
276946.588176
276957.187888
277358.332555
66.7281849592
66.7281849592
66.7281849592
66.7281849592
66.7281849592
66.7281849592
66.7281849592
66.7281849592
66.7281849592
66.7281849592
66.7281849592
66.7281849592
66.7281849592
66.7281849593
66.7281849622
66.7281851272
66.7281945697
66.7287133542
66.7575500802
67.1487658572
389.296927691
2568.07795603
12153.3406554
38072.9289276
88356.7753228
157532.952181
218931.169995
252323.580174
263965.921163
267220.622609
268353.614829
268976.18556
269475.884373
269922.459877
270331.249648
270707.300514
271052.993807
271371.142661
271663.465489
271931.339165
272176.700693
272401.652889
272607.993391
272797.825349
272971.410483
273129.548611
273273.068767
273403.546921
273523.355292
273632.474015
273730.578443
273817.639739
273895.658046
273967.115588
274033.782246
274100.398145
274165.995264
274192.420095
274230.819575
274264.106133
274294.076356
274320.685961
274342.954891
274360.928217
274375.410825
274386.801741
274395.016995
274399.740682
274402.248085
274777.034819
66.7281849581
66.7281849581
66.7281849581
66.7281849581
66.7281849581
66.7281849581
66.7281849581
66.7281849581
66.7281849581
66.7281849581
66.7281849581
66.7281849581
66.7281849581
66.7281849582
66.7281849646
66.7281853244
66.7282056555
66.7293097289
66.7888906813
67.4914471907
706.291556075
3489.69318664
16734.3096638
47662.2667065
103689.337924
173301.189365
228198.675756
254685.378371
263126.628735
265467.640874
266360.386048
266897.615709
267345.548621
267747.834701
268114.914184
268451.461204
268760.142142
269042.704304
269301.162557
269536.938102
269751.858656
269947.193747
270126.495133
270290.621361
270445.389272
270566.231546
270693.121622
270803.338128
270903.782554
270995.458985
271077.03866
271147.636391
271209.586386
271266.722613
271322.400552
271373.020006
271413.560694
271443.115384
271467.777237
271494.656041
271523.268144
271544.997359
271553.52581
271552.574769
271553.487932
271561.859524
271570.994052
271572.344116
271565.381006
271909.254172
66.7281849572
66.7281849572
66.7281849572
66.7281849572
66.7281849572
66.7281849572
66.7281849572
66.7281849572
66.7281849572
66.7281849572
66.7281849572
66.7281849572
66.7281849572
66.7281849576
66.7281849776
66.7281861243
66.7282499288
66.7318057952
66.8287759681
98.0618306188
974.192902852
4795.76616194
22097.8400463
58578.6771411
119427.795089
187539.735516
235201.953057
255645.370843
261690.399007
263392.766852
264088.853743
264554.297296
264948.083574
265301.447928
265622.828359
265915.950019
266183.554387
266428.31692
266651.26483
266853.679837
267037.54589
267204.096021
267354.832297
267491.864611
267616.658009
267728.656248
267828.180354
267916.531245
267995.999808
268068.093224
268132.562431
268188.102151
268234.374092
268280.059244
268304.145744
268344.835808
268373.153669
268393.169603
268407.406882
268419.744707
268432.461982
268442.014599
268445.185432
268442.208814
268436.850063
268432.404118
268428.327377
268421.91521
268412.260913
268742.464092
66.7281849564
66.7281849564
66.7281849564
66.7281849564
66.7281849564
66.7281849564
66.7281849564
66.7281849564
66.7281849564
66.7281849564
66.7281849565
66.7281849565
66.7281849565
66.7281849574
66.7281850132
66.728188205
66.7283644853
66.738239121
66.9181228174
173.244328153
1509.28816285
6902.11468586
28614.7340964
71005.8157952
135544.320027
200170.88368
240177.449995
255497.363257
259766.930173
261001.615352
261557.987395
261953.172348
262291.774015
262596.631958
262871.447897
263119.657501
263345.931784
263550.579414
263735.75925
263903.021158
264052.619951
264187.232867
264307.381231
264415.160735
264518.120419
264590.289778
264672.984634
264740.121573
264798.582941
264849.969976
264895.998781
264934.139833
264965.022541
264990.752506
265013.420805
265031.749949
265046.029741
265054.398167
265063.92722
265049.985358
265055.285125
265052.931832
265047.599184
265038.706539
265026.126745
265011.039628
264995.33485
264980.287862
264966.495443
265280.633309
66.7281849558
66.7281849558
66.7281849558
66.7281849558
66.7281849558
66.7281849558
66.7281849558
66.7281849558
66.7281849558
66.7281849558
66.7281849558
66.7281849558
66.7281849559
66.7281849587
66.7281851215
66.7281943428
66.728696566
66.7563099717
67.1372241836
366.583342204
2491.10083753
11474.2344607
36638.8633566
84983.5368089
151649.063789
211052.345629
243363.58283
254439.334933
257400.962004
258289.988275
258730.557132
259060.093233
259343.05943
259596.909846
259824.123266
260027.297829
260210.002852
260379.416832
260513.141628
260650.070308
260767.202214
260869.941132
260961.341081
261041.473923
261112.253879
261175.326595
261228.665842
261272.697831
261309.005446
261344.777092
261357.031215
261384.485608
261401.842924
261413.449773
261420.435414
261423.702631
261422.033474
261416.306499
261407.161029
261396.28309
261384.03408
261370.113601
261360.618546
261328.320663
261313.268261
261288.905497
261263.603876
261239.531043
261218.258635
261510.719645
66.7281849553
66.7281849553
66.7281849553
66.7281849553
66.7281849553
66.7281849553
66.7281849553
66.7281849553
66.7281849553
66.7281849553
66.7281849553
66.7281849553
66.7281849554
66.7281849623
66.7281853474
66.7282068298
66.7293598153
66.7906307558
67.5091564612
701.642074076
3451.72754501
16349.1207843
46424.0571069
100485.421896
167390.399302
219882.513647
244938.062858
252667.157951
254676.802567
255309.819139
255649.563465
255910.514783
256140.895256
256326.002953
256508.735855
256667.199858
256805.428594
256927.861228
257036.695391
257131.702371
257212.155635
257282.131356
257346.132031
257382.505055
257431.339663
257467.760085
257496.741088
257519.383187
257533.38653
257541.606997
257546.186924
257548.543892
257554.517947
257536.889884
257534.744025
257521.699114
257504.421597
257485.702469
257466.099938
257444.343
257419.008628
257391.818346
257363.078408
257334.614625
257306.19904
257282.674156
257235.718912
257204.876777
257166.617802
257421.932031
66.7281849548
66.7281849548
66.7281849548
66.7281849548
66.7281849548
66.7281849548
66.7281849548
66.7281849548
66.7281849548
66.7281849548
66.7281849548
66.7281849548
66.7281849553
66.7281849798
66.728186363
66.7282622177
66.7324310551
66.8389880324
103.576000389
1006.29102657
4909.27630725
22264.6920645
58283.9263435
117279.221694
182151.268315
226629.52148
245125.715099
250344.811809
251649.833375
252094.294987
252328.483244
252526.275119
252690.081759
252833.52319
252956.574267
253063.173139
253153.977645
253235.472376
253287.315284
253347.431203
253393.018932
253427.546453
253455.072237
253474.882205
253487.694798
253499.398153
253488.728821
253491.683473
253484.178425
253472.43541
253456.099236
253438.056321
253418.638772
253403.932561
253363.635206
253337.89183
253304.295231
253272.478783
253243.6116
253211.388834
253172.105679
253128.981776
253088.224207
253051.704781
253014.610434
252972.326347
252925.486275
252884.338047
252820.134142
253071.574915
66.7281849544
66.7281849544
66.7281849544
66.7281849544
66.7281849544
66.7281849544
66.7281849544
66.7281849544
66.7281849544
66.7281849544
66.7281849544
66.7281849544
66.7281849559
66.7281850399
66.7281897571
66.7284452614
66.7424181539
66.9755829736
209.964572419
1809.62655341
7548.44252529
29913.9412775
72385.8700322
134969.756482
195383.957584
231176.284802
244148.229619
247490.164147
248319.046226
248603.928428
248768.976241
248893.094738
248996.941077
249084.393581
249140.961536
249200.927182
249244.160736
249277.96119
249301.974995
249317.505156
249304.112577
249314.329674
249311.549384
249297.207328
249279.389125
249258.20835
249238.678878
249196.354701
249172.242933
249136.725592
249098.061158
249058.662278
249020.705929
248981.591812
248945.805685
248887.452883
248846.731665
248797.567688
248746.695704
248694.366877
248644.439772
248598.165989
248551.638157
248499.745901
248442.735185
248385.870767
248332.830892
248289.016938
248219.539551
248442.503752
66.7281849541
66.7281849541
66.7281849541
66.7281849541
66.7281849541
66.7281849541
66.7281849541
66.7281849541
66.7281849541
66.7281849541
66.7281849541
66.7281849542
66.728184959
66.7281852278
66.7282001523
66.728997758
66.7715315491
67.3016793896
505.005685413
2864.72805872
13244.6112774
39731.1341947
88796.5662547
152863.253967
206464.818342
233584.533485
242167.614259
244211.202248
244700.41144
244862.573783
244951.154362
244994.943306
245039.090599
245067.794822
245082.446799
245092.27057
245073.640561
245066.4972
245046.056757
245020.627727
244987.462919
244956.962851
244902.06018
244862.495593
244815.746131
244764.455076
244711.553472
244664.18145
244595.879787
244543.715343
244483.282619
244421.026903
244361.399791
244303.204233
244250.023783
244176.140551
244119.820628
244055.039409
243990.137189
243925.514693
243863.404964
243802.686232
243741.833141
243678.948803
243614.165843
243555.656621
243505.130098
243423.211026
243362.62952
243543.616353
66.7281849537
66.7281849537
66.7281849537
66.7281849538
66.7281849538
66.7281849538
66.7281849538
66.7281849538
66.7281849538
66.7281849538
66.7281849538
66.7281849541
66.7281849719
66.7281859648
66.7282400999
66.7311670383
66.8223944365
87.4522008224
889.652547601
4269.65097717
19554.1005852
52230.3443811
107271.710948
170060.284302
214887.864546
234116.205821
239433.658514
240593.12278
240839.578516
240879.630656
240893.861023
240882.499588
240864.351776
240817.177453
240781.646361
240734.876447
240680.460498
240626.347145
240548.876947
240486.435771
240415.615248
240343.087712
240272.003309
240179.979424
240107.093925
240026.024535
239944.530754
239872.020209
239777.470757
239703.662585
239621.240157
239538.40603
239458.080139
239380.85586
239309.402646
239217.309963
239144.755832
239065.859936
238988.538532
238912.23827
238836.308114
238761.249953
238686.904201
238618.595144
238530.32046
238463.155977
238390.609026
238318.384006
238246.740901
238398.786237
66.7281849535
66.7281849535
66.7281849535
66.7281849535
66.7281849535
66.7281849535
66.7281849535
66.7281849535
66.7281849535
66.7281849535
66.7281849535
66.7281849548
66.7281850267
66.7281890204
66.7284037116
66.7400466264
66.9439261288
183.371222791
1549.09137061
6765.7974192
27849.8999806
67765.5687624
127175.360354
185448.878036
220401.533421
233034.986062
236103.271428
236682.34857
236731.833618
236695.656384
236629.934523
236536.914326
236453.346819
236362.062256
236267.177693
236152.18871
236053.581664
235946.095263
235843.855257
235720.289065
235615.38888
235504.890947
235398.292018
235273.066371
235169.147457
235058.497328
234949.879218
234849.424168
234731.650716
234632.721979
234527.902426
234425.657133
234325.363723
234234.103654
234123.55931
234033.3539
233938.85746
233845.357268
233754.134143
233664.070957
233574.897492
233492.077643
233391.019173
233311.561871
233227.226871
233143.402958
233059.958283
232977.059422
232895.155756
233018.244968
66.7281849532
66.7281849532
66.7281849532
66.7281849532
66.7281849532
66.7281849532
66.7281849532
66.7281849532
66.7281849532
66.7281849532
66.7281849533
66.7281849588
66.72818526
66.7282017112
66.7290678786
66.7743536158
67.3327031094
514.045611383
2871.13656579
12991.3910545
38928.845621
86267.3552399
147414.697108
197962.674628
223066.998565
230668.333001
232257.432621
232460.25656
232391.165965
232250.854697
232113.691883
231969.623686
231806.509826
231658.98561
231511.137049
231343.543781
231196.860094
231042.489623
230896.035621
230731.41147
230587.169476
230441.465506
230300.891157
230145.41306
230010.315315
229871.181928
229736.74872
229609.055239
229465.946261
229344.208342
229217.671699
229094.901328
228981.170479
228850.208991
228740.944406
228626.459868
228516.00878
228408.444842
228302.425669
228203.855246
228085.15965
227990.265223
227891.346044
227794.23999
227697.862681
227602.690314
227508.25936
227414.947092
227323.242388
227417.844174
66.728184953
66.728184953
66.728184953
66.728184953
66.728184953
66.728184953
66.728184953
66.728184953
66.728184953
66.728184953
66.7281849535
66.7281849803
66.7281864439
66.7282645344
66.7324164702
66.8416870967
99.3159922667
966.425198271
4601.02120757
20544.6754635
53586.9596084
107331.590679
166467.845509
206861.589975
223235.504369
227384.211447
228060.057716
228014.084689
227816.963349
227615.879993
227389.424643
227179.789908
226971.676136
226746.70634
226543.405738
226341.283525
226126.318026
225931.374193
225741.33615
225536.450063
225354.567415
225170.3731
224998.108824
224808.795116
224645.319313
224478.714993
224321.517842
224149.013584
224000.323507
223849.910767
223703.692879
223567.582996
223414.609778
223281.940016
223145.778479
223015.96802
222892.563554
222777.292461
222640.352792
222525.145302
222408.130221
222294.944879
222185.086406
222076.911395
221968.740894
221860.771987
221754.624523
221651.137755
221550.637946
221618.054655
66.7281849528
66.7281849528
66.7281849528
66.7281849528
66.7281849528
66.7281849528
66.7281849528
66.7281849528
66.7281849528
66.7281849529
66.7281849554
66.7281850931
66.7281925539
66.7285837238
66.7491596351
67.0620731426
264.153201636
2081.71872411
8239.96907061
30858.6897768
72029.572878
129817.492238
182679.126449
211893.804727
221466.411184
223421.195077
223541.395843
223330.310072
223038.74508
222757.091498
222475.335706
222183.014408
221915.860516
221633.981482
221376.628884
221123.2735
220860.913525
220621.729371
220388.171195
220144.03254
219925.441048
219711.065074
219484.747939
219286.286423
219086.522155
218897.678219
218695.828548
218518.397868
218338.79487
218165.436087
218002.969109
217827.337157
217675.469139
217518.43853
217363.751295
217223.125273
217068.122712
216939.000566
216802.937325
216667.040346
216533.714392
216406.909081
216286.268405
216173.2908
216037.623351
215922.41037
215803.689496
215690.562315
215582.192557
215623.644195
66.7281849526
66.7281849526
66.7281849526
66.7281849526
66.7281849526
66.7281849526
66.7281849527
66.7281849527
66.7281849527
66.7281849529
66.7281849656
66.7281856592
66.7282230407
66.7301901072
66.8099383125
74.5628339889
771.963311958
3651.42740483
16390.7930679
45034.1468045
93997.4719616
151772.431075
194628.521163
213397.86173
218270.643805
218965.45612
218778.250523
218420.178835
218063.157946
217689.03865
217345.904301
216989.271193
216664.921248
216327.23563
216017.090091
215715.47566
215405.717654
215124.851104
214850.715075
214569.446157
214313.590453
214065.465641
213808.526468
213577.938785
213354.289337
213119.257278
212911.706354
212704.237977
212507.429988
212296.710588
212113.539027
211931.845194
211754.796109
211587.435373
211402.34789
211245.180536
211088.69695
210936.846478
210787.205446
210645.00944
210484.660326
210350.574596
210215.782461
210085.157804
209955.572288
209826.349352
209698.520887
209574.388194
209454.636496
209464.63189
66.7281849525
66.7281849525
66.7281849525
66.7281849525
66.7281849525
66.7281849525
66.7281849525
66.7281849525
66.7281849525
66.7281849542
66.7281850418
66.7281897543
66.728435253
66.7412715949
66.9611132715
184.988170136
1516.90089511
6512.82206422
26602.4005208
63831.07172
118297.089544
170879.098189
201632.27478
212113.031568
214170.753814
214171.906864
213773.209568
213319.417045
212884.097529
212439.898504
212029.749643
211612.673853
211230.46418
210836.891839
210481.017527
210113.83666
209778.571613
209453.979636
209124.937098
208824.831869
208534.745538
208236.194694
207967.214171
207708.289899
207437.941636
207196.627065
206958.268535
206732.272667
206494.726821
206283.99996
206074.993308
205877.827673
205666.868706
205483.26052
205299.157951
205119.884256
204952.885376
204769.351208
204612.096033
204451.658339
204295.003942
204142.57403
203995.114414
203851.630791
203717.553319
203563.062025
203432.19608
203297.833488
203167.707811
203148.066637
66.7281849523
66.7281849523
66.7281849523
66.7281849523
66.7281849523
66.7281849523
66.7281849523
66.7281849523
66.7281849525
66.7281849628
66.7281855018
66.7282137166
66.729641256
66.7998748269
67.5996041574
683.299280122
3289.39237908
14490.9352984
41100.9189273
86987.1493747
142518.770244
184959.504174
204016.571793
208925.19649
209445.904638
209080.275138
208552.370186
208016.10452
207509.436498
207000.830806
206531.012365
206056.521567
205620.585538
205179.297961
204775.392179
204365.265335
203991.826972
203610.410224
203261.47012
202925.026763
202583.318229
202272.955651
201974.119411
201667.08522
201390.835914
201124.685601
200848.751962
200601.714733
200358.012266
200126.70138
199883.150536
199669.335618
199456.838505
199250.389292
199055.843096
198847.301607
198667.188643
198486.087009
198308.394527
198133.855074
197970.745266
197791.811129
197641.832295
197489.717981
197338.334934
197187.289405
197038.559773
196895.087527
196757.846763
196712.978784
66.7281849522
66.7281849522
66.7281849522
66.7281849522
66.7281849522
66.7281849522
66.7281849522
66.7281849522
66.7281849539
66.7281850427
66.728189717
66.728428753
66.7406564156
66.9532045149
173.63741133
1412.52864524
6214.4316223
25432.8877119
61017.0632261
113085.93458
163463.660988
192975.3776
202857.609118
204590.500738
204346.956367
203774.940591
203150.708553
202537.926324
201964.3752
201392.82577
200864.371942
200340.742427
199837.766739
199372.750202
198902.224202
198468.334004
198051.35894
197633.662907
197254.154865
196866.423577
196512.329627
196173.42627
195826.729991
195513.792765
195212.573872
194902.917734
194625.985028
194357.745684
194077.787754
193829.190926
193583.374434
193351.770964
193106.885203
192890.947395
192676.376515
192469.551367
192275.245309
192064.490294
191880.648775
191693.767809
191511.541587
191337.365164
191170.411009
191015.160982
190839.446021
190684.913181
190525.059431
190370.785385
190224.175501
190152.862177
66.7281849521
66.7281849521
66.7281849521
66.7281849521
66.7281849521
66.7281849521
66.7281849521
66.7281849523
66.7281849653
66.7281856474
66.7282213295
66.7300411441
66.8096828487
71.5086710401
728.090171975
3423.40708849
14781.4411236
41262.8269405
85980.2197684
138907.023817
178313.425525
195358.263849
199412.140792
199571.363696
198964.589112
198267.17455
197563.128388
196886.058411
196250.560912
195626.850635
195029.855476
194473.541314
193921.295489
193410.913896
192901.025953
192433.523155
191962.268676
191534.271268
191100.073474
190701.891423
190319.017418
189932.752701
189586.343247
189229.636042
188905.949569
188595.257893
188275.582361
187988.658013
187706.710457
187440.607751
187162.369812
186914.952817
186670.631003
186440.579302
186197.301544
185984.287978
185773.60268
185566.355092
185362.002361
185165.452794
184954.083448
184780.237632
184614.326563
184450.24796
184275.187871
184088.512405
183908.255094
183750.884992
183614.450365
183543.34431
66.728184952
66.728184952
66.728184952
66.728184952
66.728184952
66.728184952
66.728184952
66.7281849549
66.7281851047
66.7281928678
66.7285827309
66.7479837942
67.0483529727
229.959978506
1823.42386383
6963.8784943
27245.0481928
63320.0457131
113904.171112
160349.689683
185884.213045
193697.435138
194712.25211
194168.564613
193376.975592
192589.794305
191817.939005
191081.311903
190375.040516
189714.938843
189070.196525
188451.775233
187877.608826
187306.834111
186782.763522
186257.797165
185778.073246
185296.811735
184858.40555
184414.183757
184007.009879
183616.077709
183221.953742
182863.938672
182519.45499
182168.776923
181851.525365
181545.657387
181230.735236
180949.207756
180671.574425
180408.097659
180134.027352
179889.594384
179649.546461
179423.436024
179182.624059
178970.339754
178755.514315
178546.125608
178342.772356
178154.898308
177954.298496
177782.189943
177602.607925
177421.363578
177243.266853
177072.7968
176911.902598
176790.220698
66.7281849519
66.7281849519
66.7281849519
66.7281849519
66.7281849519
66.7281849519
66.7281849525
66.7281849854
66.7281866739
66.7282715569
66.7324879536
66.8476054397
92.4882171306
897.077366557
4099.78296267
17410.9151877
45649.577428
90802.8659474
140350.797457
174083.297219
187164.129315
189679.888297
189344.9898
188499.486106
187604.645593
186738.295001
185907.721136
185133.049255
184376.664596
183656.347816
182964.05232
182327.927652
181697.143609
181114.955002
180535.069009
180004.362682
179472.597945
178986.7983
178499.302324
178055.655709
177605.358484
177193.838703
176799.077309
176400.408198
176037.53139
175690.161248
175333.782995
175012.647664
174703.924595
174386.098098
174099.38492
173818.040133
173552.11568
173274.134897
173027.782005
172784.197742
172547.154958
172324.514606
172083.924271
171874.091698
171663.372589
171459.576029
171262.653838
171070.823134
170889.619351
170689.139966
170515.289323
170339.09049
170167.829034
170013.584009
66.7281849518
66.7281849518
66.7281849518
66.7281849518
66.7281849518
66.7281849519
66.7281849597
66.7281853504
66.7282049571
66.729159283
66.7745015352
67.3386933933
433.358112822
2573.08795202
9543.97043907
32587.2600482
71057.2472883
120136.259493
160290.838373
179527.106201
184381.012935
184492.237264
183624.761757
182637.49391
181673.656078
180753.153613
179875.629936
179041.432749
178241.867118
177499.561257
176774.375994
176083.091105
175440.457596
174806.019652
174220.974168
173640.482097
173107.841164
172575.22708
172089.08609
171600.47391
171156.026458
170704.353999
170292.07068
169896.004918
169497.45445
169133.245951
168784.721362
168427.908037
168105.58983
167796.105842
167475.527194
167187.889213
166904.641519
166637.465217
166357.426946
166109.547967
165862.957187
165623.347864
165391.799233
165173.930793
164938.152078
164732.952989
164526.58579
164325.669607
164130.318032
163939.744077
163753.407011
163577.929672
163383.649352
163211.831023
66.7281849517
66.7281849517
66.7281849517
66.7281849517
66.7281849517
66.728184954
66.7281850685
66.7281907607
66.7284662719
66.7416335873
66.9654639332
167.159669108
1320.84309917
5773.1469789
23149.2373902
55133.5687835
101185.194169
145290.203574
170734.292811
178750.386881
179579.715077
178753.156659
177679.901867
176615.30463
175597.358574
174631.103756
173708.964588
172849.530639
172015.117454
171225.479286
170469.393106
169767.364276
169080.189495
168424.510293
167817.637425
167214.202214
166661.474133
166109.616773
165605.421619
165098.92433
164632.60988
164186.863198
163739.166208
163329.159598
162936.812292
162538.467922
162177.080712
161828.75468
161473.711431
161153.616222
160844.475288
160524.878482
160237.539943
159954.858986
159681.19068
159424.173814
159151.502976
158910.793184
158670.617833
158436.996801
158218.74364
157981.413367
157775.046817
157567.115037
157364.614412
157166.737116
156973.892763