/*--------------------------------*- C++ -*----------------------------------*\
| =========                 |                                                 |
| \\      /  F ield         | foam-extend: Open Source CFD                    |
|  \\    /   O peration     | Version:     4.1                                |
|   \\  /    A nd           | Web:         http://www.foam-extend.org         |
|    \\/     M anipulation  |                                                 |
\*---------------------------------------------------------------------------*/
FoamFile
{
    version     2.0;
    format      ascii;
    class       volScalarField;
    location    "0.0009";
    object      rho;
}
// * * * * * * * * * * * * * * * * * * * * * * * * * * * * * * * * * * * * * //

dimensions      [1 -3 0 0 0 0 0];

internalField   nonuniform List<scalar> 
8400
(
0.00101999409833
0.00101999409833
0.00101999409833
0.00101999409833
0.00101999409833
0.00101999409833
0.00101999409833
0.00101999409833
0.00101999409833
0.00101999409833
0.00101999409833
0.00101999409833
0.00101999409833
0.00101999409833
0.00101999409834
0.00101999409834
0.00101999409835
0.00101999409898
0.00101999413522
0.00101999613341
0.00102010833798
0.00102226488756
0.00104717380766
0.00120813044407
0.00176888828889
0.00311661708387
0.00559424965279
0.00906953302319
0.0124432263173
0.0145476216747
0.0153827954125
0.0156105050232
0.0156516189857
0.0156468738533
0.0156326155211
0.0156173669984
0.0156029453235
0.0155896470294
0.0155774499498
0.0155662414401
0.0155558737417
0.0155462025078
0.0155370933293
0.0155284268832
0.0155200978133
0.0155120133197
0.0155043338117
0.0154970306328
0.0154895652566
0.015481828978
0.0154740334074
0.0154661959766
0.0154583221445
0.0154504239872
0.015442512972
0.0154346132069
0.0154267866124
0.0154191186881
0.0154117015234
0.0154046321015
0.0153980020528
0.015391898352
0.0153864023169
0.0153815993993
0.0153775988355
0.015374515401
0.01537244023
0.0153714318147
0.0153716338434
0.0154117114569
0.00101999409812
0.00101999409812
0.00101999409812
0.00101999409812
0.00101999409812
0.00101999409812
0.00101999409812
0.00101999409812
0.00101999409812
0.00101999409812
0.00101999409812
0.00101999409812
0.00101999409812
0.00101999409812
0.00101999409812
0.00101999409812
0.00101999409817
0.00101999410115
0.00101999427092
0.00102000355452
0.00102051607716
0.0010270712061
0.00108432172558
0.00136182666341
0.00217476707744
0.00391559871281
0.00684921489528
0.0104726783568
0.0134712825482
0.0150454711725
0.015595317309
0.0157524970842
0.0158040918155
0.0158307126123
0.0158511016012
0.0158693872214
0.0158862282109
0.015901759814
0.0159164824732
0.0159304829588
0.0159435203095
0.0159555395773
0.0159665183655
0.01597643948
0.0159852930974
0.0159930808596
0.0159998126562
0.0160054886396
0.0160101074246
0.0160137024522
0.016016325472
0.0160180248447
0.0160188538501
0.0160188726477
0.0160181447394
0.0160167420798
0.0160147646358
0.0160123341716
0.0160095776521
0.0160066245011
0.0160036011961
0.0160006279796
0.0159978075494
0.0159952384483
0.0159930401775
0.0159913279496
0.0159901946617
0.0159897161869
0.0159900291609
0.0160224231436
0.00101999409801
0.00101999409801
0.00101999409801
0.00101999409801
0.00101999409801
0.00101999409801
0.00101999409802
0.00101999409802
0.00101999409802
0.00101999409802
0.00101999409802
0.00101999409802
0.00101999409802
0.00101999409802
0.00101999409802
0.00101999409802
0.0010199940983
0.00101999411431
0.00101999500801
0.00102004513087
0.00102139388229
0.00103769814402
0.00115527688481
0.00160969345592
0.00276976639274
0.00501023070882
0.00836375098215
0.0119000315793
0.0143181017224
0.0153666696331
0.0156923127376
0.0157907179863
0.0158335356047
0.015863169429
0.0158884414824
0.0159112391235
0.0159324864541
0.0159523936449
0.0159707881855
0.0159876716214
0.01600306554
0.0160170018494
0.0160295208798
0.0160406627973
0.0160504607766
0.016058936629
0.0160661131509
0.0160720355657
0.0160767609125
0.0160803487458
0.0160828637324
0.0160843720132
0.0160849419658
0.0160846406015
0.0160835483539
0.0160817734548
0.016079433579
0.0160766502573
0.0160735537894
0.0160702779985
0.0160669445983
0.0160636643154
0.0160605569573
0.0160577386957
0.0160553091503
0.016053357422
0.0160519611324
0.0160511837444
0.016051137128
0.0160777069626
0.00101999409795
0.00101999409795
0.00101999409795
0.00101999409795
0.00101999409795
0.00101999409795
0.00101999409795
0.00101999409795
0.00101999409795
0.00101999409795
0.00101999409795
0.00101999409795
0.00101999409795
0.00101999409795
0.00101999409795
0.00101999409798
0.00101999409934
0.00101999417758
0.00101999850276
0.00102024188951
0.00102406770193
0.00106194785624
0.00127447476153
0.00194729216596
0.00346921380047
0.00617403233551
0.00976114923527
0.0129956236194
0.0148446671118
0.0155282210785
0.0157273622469
0.0157943474973
0.0158303317005
0.015858248062
0.0158826826184
0.0159046285936
0.0159248668128
0.0159436136684
0.0159606979355
0.0159761295298
0.0159899546984
0.0160022270994
0.0160130040704
0.0160223453593
0.0160303037365
0.0160369204156
0.0160422338099
0.0160462966385
0.0160491764511
0.0160509447203
0.0160516806345
0.0160514765276
0.0160504329467
0.0160486358289
0.0160461570585
0.0160430874862
0.016039539372
0.016035641824
0.0160315383357
0.0160273664139
0.0160232431539
0.0160192595853
0.0160155060359
0.0160120927918
0.0160091255405
0.0160066899861
0.0160048548535
0.0160036728464
0.0160032341982
0.0160261295277
0.0010199940979
0.0010199940979
0.0010199940979
0.0010199940979
0.0010199940979
0.00101999409791
0.00101999409791
0.00101999409791
0.00101999409791
0.00101999409791
0.00101999409791
0.00101999409791
0.00101999409791
0.00101999409791
0.00101999409791
0.00101999409798
0.00101999410227
0.00101999434692
0.00102000774208
0.00102074277638
0.0010295320612
0.00110134520538
0.00142502851584
0.0023346913687
0.00422432470104
0.00730655133527
0.0109430454838
0.0137749931166
0.015157879265
0.0156107079675
0.0157398858123
0.0157883548846
0.015818203896
0.0158426178755
0.0158642919732
0.0158835981212
0.0159007435183
0.0159163479976
0.0159305555326
0.0159431879811
0.0159542705099
0.0159638479349
0.0159719822826
0.015978749936
0.0159842154141
0.0159884347159
0.0159914615359
0.0159933363625
0.0159940895817
0.0159937765219
0.015992501014
0.0159904024733
0.015987617806
0.0159842417672
0.0159803264338
0.0159759120323
0.015971082339
0.0159659976887
0.0159608406736
0.0159557518586
0.0159508158132
0.0159460890124
0.0159416391723
0.0159375595924
0.0159339660399
0.0159309735233
0.0159286643472
0.0159270826113
0.0159262891645
0.0159468461557
0.00101999409787
0.00101999409787
0.00101999409787
0.00101999409787
0.00101999409787
0.00101999409787
0.00101999409787
0.00101999409787
0.00101999409787
0.00101999409787
0.00101999409787
0.00101999409787
0.00101999409787
0.00101999409787
0.00101999409788
0.00101999409815
0.00101999411372
0.00101999498537
0.00102004391236
0.00102138508041
0.00103758363571
0.00115465352804
0.00160817746643
0.00276822938792
0.00501161074386
0.00837336205064
0.0119160597066
0.014323384023
0.0153482882654
0.0156550168191
0.0157425981383
0.0157784651044
0.0158023066225
0.0158222152161
0.0158398621131
0.0158556273179
0.0158696510919
0.0158820410172
0.0158926237409
0.0159014052989
0.0159089311965
0.0159153500431
0.0159205057538
0.0159244400427
0.0159272049538
0.0159288450972
0.0159294023538
0.0159289023271
0.0159273551046
0.0159248059335
0.0159213834077
0.0159172824148
0.0159126733557
0.0159076222353
0.0159024018528
0.0158970582059
0.0158911494555
0.0158848257973
0.0158785647662
0.0158725239356
0.0158667407578
0.0158611941767
0.015855911257
0.0158510183385
0.015846699247
0.0158431128005
0.0158403403181
0.0158383885894
0.0158372673607
0.0158562180881
0.00101999409785
0.00101999409785
0.00101999409785
0.00101999409785
0.00101999409785
0.00101999409785
0.00101999409785
0.00101999409785
0.00101999409785
0.00101999409785
0.00101999409785
0.00101999409785
0.00101999409785
0.00101999409785
0.00101999409786
0.00101999409871
0.00101999414802
0.00101999689532
0.0010201523174
0.00102289659839
0.0010522815478
0.00123137403305
0.00183150165008
0.00324881901136
0.00582395285509
0.00936867298032
0.0127127832772
0.0147108272035
0.0154650911229
0.015675838602
0.0157364691965
0.0157629592296
0.0157812587452
0.0157964989652
0.0158097852593
0.0158213969119
0.0158314357662
0.015839957891
0.0158470067636
0.0158526579638
0.01585702107
0.0158601829541
0.0158621975001
0.0158630979257
0.0158629082787
0.0158616793266
0.0158594926227
0.0158564189731
0.0158524980917
0.0158477641672
0.0158422937712
0.015836227893
0.0158297239359
0.0158228794725
0.0158157434306
0.0158083662065
0.0158008195022
0.0157932331289
0.0157857759055
0.0157785682191
0.0157716695455
0.0157651395522
0.0157590630997
0.0157535423428
0.0157486777444
0.0157445486461
0.0157412130217
0.0157387124299
0.0157371120986
0.0157546882479
0.00101999409783
0.00101999409783
0.00101999409783
0.00101999409783
0.00101999409783
0.00101999409783
0.00101999409783
0.00101999409783
0.00101999409783
0.00101999409783
0.00101999409783
0.00101999409783
0.00101999409783
0.00101999409783
0.00101999409787
0.00101999410024
0.0010199942356
0.00102000167212
0.00102041496437
0.00102600966313
0.00107676300313
0.00133368591282
0.00210374404748
0.00378232709866
0.00666096734739
0.0102947495259
0.0133641455068
0.0149846224161
0.0155342510178
0.0156798120145
0.0157218459561
0.0157405982289
0.015753556414
0.0157640626244
0.0157728396069
0.0157800911416
0.0157859125041
0.0157903631936
0.0157935056537
0.0157954192646
0.0157961837386
0.0157958720582
0.0157945363007
0.0157922096214
0.0157889360039
0.0157847678195
0.0157797653414
0.0157739996842
0.0157675269169
0.0157603920574
0.0157526537175
0.0157444119961
0.0157358148042
0.0157270124655
0.0157181894864
0.0157093777443
0.0157006462099
0.015692017145
0.0156832132533
0.0156745716769
0.0156665202916
0.0156590053512
0.0156520550798
0.0156457435654
0.0156401704302
0.0156354038764
0.0156314652984
0.0156283860263
0.0156262649234
0.0156426071575
0.00101999409781
0.00101999409781
0.00101999409781
0.00101999409781
0.00101999409781
0.00101999409781
0.00101999409781
0.00101999409781
0.00101999409781
0.00101999409781
0.00101999409781
0.00101999409781
0.00101999409781
0.00101999409781
0.0010199940979
0.00101999410305
0.00101999439364
0.00102001017352
0.00102086153782
0.00103089860321
0.00111056562567
0.00145829312267
0.00241620882295
0.0043776606721
0.00752520642757
0.0111562354541
0.0138983965343
0.0151818154092
0.0155761071691
0.0156747179936
0.0157019233079
0.0157132961613
0.0157205670059
0.0157258716178
0.0157296846824
0.0157321477728
0.0157333561316
0.015733399454
0.0157323401711
0.0157302180087
0.0157270835899
0.0157230035418
0.0157180415709
0.0157122571431
0.015705939869
0.0156991299183
0.0156913603637
0.015682695927
0.015673519151
0.0156638869717
0.0156537662838
0.0156432037284
0.0156324103741
0.0156216305181
0.0156109238485
0.0156001650219
0.0155892863088
0.0155785033823
0.0155682326833
0.0155587106993
0.0155497715739
0.0155411024627
0.0155327168614
0.015525102915
0.0155187639602
0.0155136713662
0.0155094157489
0.0155057812583
0.0155029831124
0.0155179058897
0.0010199940978
0.0010199940978
0.0010199940978
0.0010199940978
0.0010199940978
0.0010199940978
0.0010199940978
0.0010199940978
0.0010199940978
0.0010199940978
0.0010199940978
0.0010199940978
0.0010199940978
0.0010199940978
0.00101999409809
0.00101999411455
0.00101999503026
0.00102004605599
0.00102143125718
0.00103805024951
0.00115724353141
0.00161623328975
0.00278647758512
0.00504378174783
0.00841628890609
0.0119533515442
0.0143329744039
0.0153216964083
0.0155981483635
0.0156621815886
0.0156773725872
0.0156816499123
0.0156828110105
0.0156824037151
0.0156807635857
0.0156780073589
0.015674221397
0.0156694867084
0.0156638689887
0.0156573938171
0.0156500756113
0.0156419805928
0.0156332077583
0.0156238175234
0.0156138292721
0.0156032246128
0.0155919922849
0.0155802532011
0.0155681847134
0.0155558397957
0.0155431579238
0.0155301420848
0.0155169714078
0.0155041552368
0.0154918365841
0.0154794519415
0.0154669134224
0.0154545736354
0.0154427154859
0.0154315731156
0.0154211525979
0.0154113459371
0.0154021447451
0.0153937368285
0.0153863878708
0.015380216907
0.0153751497937
0.0153710762092
0.0153680104207
0.0153821009375
0.00101999409779
0.00101999409779
0.00101999409779
0.00101999409779
0.00101999409779
0.00101999409779
0.00101999409779
0.00101999409779
0.00101999409779
0.00101999409779
0.00101999409779
0.00101999409779
0.00101999409779
0.0010199940978
0.0010199940986
0.00101999414453
0.00101999668173
0.0010201388452
0.00102271977609
0.00105109930857
0.00122687160832
0.00182046777126
0.00322903766833
0.00579102410961
0.00933080066198
0.0126819473019
0.0146800506064
0.0154164712651
0.0156029174153
0.0156403288944
0.0156448272511
0.0156419457063
0.0156367991051
0.0156303971975
0.0156230183225
0.0156147756659
0.0156057258584
0.0155959616772
0.0155855466847
0.0155744791774
0.015562759229
0.0155504256708
0.0155375672778
0.0155242582428
0.0155107876816
0.0154971858245
0.0154829334727
0.0154680663565
0.0154529710232
0.0154377210926
0.0154223149321
0.0154068045986
0.0153913162161
0.0153759910687
0.0153609332786
0.015346172212
0.0153317210743
0.0153176725808
0.0153044863335
0.0152923389508
0.0152807306601
0.0152696630718
0.0152594608676
0.0152501919057
0.0152419308212
0.0152347636821
0.0152287735614
0.0152240244416
0.0152205603716
0.0152337905914
0.00101999409778
0.00101999409778
0.00101999409778
0.00101999409778
0.00101999409778
0.00101999409778
0.00101999409778
0.00101999409778
0.00101999409778
0.00101999409778
0.00101999409778
0.00101999409778
0.00101999409778
0.00101999409782
0.00101999410016
0.00101999423241
0.00102000143511
0.00102039742652
0.0010258471671
0.00107549469966
0.00132916397673
0.00209181545198
0.00375878252049
0.00662441296902
0.010255420716
0.0133308029398
0.0149450113272
0.015471983989
0.0155906560452
0.0156072709041
0.0156021200716
0.0155920351195
0.0155803836723
0.0155678342616
0.015554561821
0.0155406719316
0.0155262184575
0.0155114907924
0.0154965907004
0.0154810731416
0.0154648743403
0.0154482349319
0.0154312450569
0.0154140022303
0.0153965398742
0.0153788410021
0.0153609049448
0.0153427806907
0.0153245589437
0.0153065999451
0.015288990075
0.0152712328074
0.01525335589
0.0152357312702
0.0152184597649
0.0152015930612
0.0151851742001
0.0151692964719
0.0151541456002
0.0151398774219
0.0151265443054
0.0151141804861
0.0151031210884
0.0150934100612
0.0150844985902
0.0150764305722
0.0150695830787
0.0150640771098
0.0150600280749
0.015072159381
0.00101999409777
0.00101999409777
0.00101999409777
0.00101999409777
0.00101999409777
0.00101999409777
0.00101999409777
0.00101999409777
0.00101999409777
0.00101999409777
0.00101999409777
0.00101999409777
0.00101999409777
0.00101999409787
0.00101999410338
0.00101999441054
0.0010200108953
0.00102088669011
0.00103115485294
0.00111193774008
0.00146272171482
0.00242601110432
0.00439454122478
0.00754692078253
0.0111733310628
0.0138935565046
0.0151411570066
0.0154989979925
0.0155660328097
0.0155653884524
0.0155508657084
0.0155332631967
0.0155149244562
0.0154963337379
0.0154771223203
0.0154572859589
0.0154371540043
0.01541682216
0.0153962912088
0.0153755400442
0.0153545776901
0.0153334257899
0.0153123953878
0.0152915817447
0.0152705137222
0.0152491642299
0.015227747647
0.0152062554912
0.0151847849888
0.0151634881678
0.0151424643688
0.0151217602552
0.015101703018
0.0150823345931
0.0150630774841
0.0150439758558
0.0150255226012
0.0150079207081
0.0149912363981
0.014975469683
0.0149606258594
0.0149467775656
0.0149340926986
0.0149227138411
0.0149126407507
0.0149040686693
0.0148969473808
0.0148907925625
0.0148858323815
0.0148964365118
0.00101999409776
0.00101999409776
0.00101999409776
0.00101999409776
0.00101999409776
0.00101999409776
0.00101999409776
0.00101999409776
0.00101999409776
0.00101999409776
0.00101999409776
0.00101999409776
0.00101999409777
0.00101999409812
0.00101999411798
0.00101999520682
0.0010200550438
0.00102157765076
0.00103964041678
0.00116637724734
0.00164451969679
0.0028491867333
0.00515057644905
0.00854915005691
0.0120573709601
0.0143612388808
0.0152762968484
0.0155024021244
0.0155302994718
0.0155152798768
0.0154919544668
0.0154667316251
0.0154408555691
0.0154148217217
0.015388719701
0.015362575682
0.015336454595
0.0153106495035
0.0152851825205
0.0152595401205
0.015233678883
0.0152078734481
0.0151821747783
0.015156627337
0.0151312462287
0.0151062742264
0.0150817511663
0.0150571945611
0.0150325630548
0.0150081670424
0.014984180774
0.0149607344971
0.014937843983
0.0149157132611
0.0148943433108
0.0148733385488
0.0148529568052
0.014833656787
0.0148153668941
0.0147979298983
0.0147814109409
0.014766119839
0.0147523132675
0.0147399461342
0.0147288041982
0.0147188230204
0.0147101666626
0.0147033517893
0.0146982032724
0.0147070733835
0.00101999409776
0.00101999409776
0.00101999409776
0.00101999409776
0.00101999409776
0.00101999409776
0.00101999409776
0.00101999409776
0.00101999409776
0.00101999409776
0.00101999409776
0.00101999409776
0.00101999409778
0.00101999409899
0.00101999416674
0.00101999783466
0.00102019831957
0.00102353689898
0.00105731323155
0.00125528731541
0.00189676509192
0.00338450421584
0.00603892027079
0.00961100685812
0.0128740718842
0.0147257116297
0.0153558403539
0.0154838156938
0.0154824728173
0.0154544276681
0.0154215543108
0.0153880230832
0.0153545718547
0.0153216076535
0.0152892160529
0.0152569646117
0.0152248025918
0.0151930053329
0.0151616183589
0.015130487307
0.0150998288578
0.0150698074384
0.0150399089581
0.0150099943332
0.014980371554
0.0149511981193
0.0149227674827
0.01489500464
0.0148673440774
0.0148398525607
0.0148129218022
0.0147866635496
0.014761132984
0.0147363454566
0.0147125788564
0.0146898867021
0.0146678094479
0.0146463920908
0.0146259907308
0.0146068332793
0.0145891347132
0.0145728677633
0.0145578327084
0.0145439589555
0.0145314401226
0.014520549542
0.0145113816857
0.0145041214701
0.0144983384671
0.0145055796859
0.00101999409775
0.00101999409775
0.00101999409775
0.00101999409775
0.00101999409775
0.00101999409775
0.00101999409775
0.00101999409775
0.00101999409775
0.00101999409775
0.00101999409775
0.00101999409776
0.00101999409782
0.00101999410168
0.00101999431568
0.00102000574944
0.00102061517177
0.00102819891215
0.00109179946732
0.00139026369132
0.00224667940577
0.00405671124557
0.00706277398835
0.0106968367736
0.0135889686796
0.0149869115743
0.0153870190204
0.0154431952024
0.0154192314234
0.015379754777
0.0153381232671
0.0152968835621
0.0152560747198
0.015215749984
0.0151761378551
0.0151374204923
0.0150995954133
0.0150622210713
0.0150252261345
0.0149887838547
0.0149529172848
0.0149178966857
0.0148837415861
0.0148498965615
0.0148162872375
0.0147832376718
0.0147508265121
0.0147193126623
0.0146886790031
0.0146583746365
0.0146284509893
0.0145993251633
0.0145711229114
0.0145438923109
0.0145179033828
0.0144931343969
0.0144690672037
0.0144458206803
0.0144238064999
0.0144031422748
0.0143839207036
0.0143661690559
0.0143498421638
0.0143349268811
0.0143215177662
0.0143100490155
0.014300585764
0.0142924832336
0.0142856767612
0.0142921274138
0.00101999409775
0.00101999409775
0.00101999409775
0.00101999409775
0.00101999409775
0.00101999409775
0.00101999409775
0.00101999409775
0.00101999409775
0.00101999409775
0.00101999409775
0.00101999409775
0.00101999409801
0.00101999411229
0.00101999489041
0.00102003696085
0.00102134048818
0.00103660752125
0.0011470806177
0.00158170582968
0.00270485847643
0.00489549293991
0.00821587007215
0.011762201988
0.0141781465771
0.0151562388719
0.0153811749721
0.0153855810506
0.0153434581623
0.0152935585023
0.0152429734946
0.0151930427094
0.0151443807914
0.015097072068
0.015050672883
0.0150051165174
0.0149605811837
0.0149172402527
0.0148751170934
0.0148337143967
0.0147928891092
0.014752846963
0.014713892713
0.0146759801426
0.0146385544277
0.0146016745156
0.0145656218475
0.0145306839518
0.014496867277
0.0144635283995
0.0144307125548
0.0143988817621
0.0143681271083
0.0143384615887
0.0143101836118
0.0142833153267
0.0142573341405
0.0142323332251
0.0142086907007
0.0141864931951
0.0141658135987
0.0141466875446
0.0141291331894
0.0141134723152
0.0140997513251
0.0140874227065
0.0140765014591
0.0140672641274
0.0140597167318
0.0140647121819
0.00101999409775
0.00101999409775
0.00101999409775
0.00101999409775
0.00101999409775
0.00101999409775
0.00101999409775
0.00101999409775
0.00101999409775
0.00101999409775
0.00101999409775
0.00101999409776
0.0010199940988
0.00101999415633
0.00101999724962
0.00102016504123
0.00102309242478
0.00105416491088
0.0012414969164
0.0018598328506
0.00331154976405
0.00591695927769
0.00946289107433
0.012745545904
0.0146226425325
0.0152445525862
0.0153439768944
0.0153116665293
0.0152544706874
0.0151939240085
0.0151342131505
0.0150762514096
0.0150197216998
0.014964533438
0.0149110750685
0.0148593048678
0.0148086816438
0.0147591447706
0.0147111307705
0.0146646117632
0.0146189991281
0.0145742065813
0.014530761263
0.0144886359343
0.014447225186
0.01440656013
0.0143669494452
0.0143286589591
0.0142916643483
0.0142553581986
0.0142197597172
0.0141852960883
0.0141520900515
0.0141204038524
0.0140902136256
0.0140609804283
0.0140327886155
0.0140060669273
0.0139808781538
0.0139572190627
0.0139351247399
0.0139149481284
0.0138967531255
0.0138800033531
0.0138647112895
0.013851159592
0.0138393574348
0.0138293166823
0.0138210532754
0.0138245445798
0.00101999409774
0.00101999409774
0.00101999409774
0.00101999409774
0.00101999409774
0.00101999409774
0.00101999409774
0.00101999409774
0.00101999409774
0.00101999409774
0.00101999409774
0.00101999409782
0.00101999410214
0.00101999433813
0.00102000675963
0.00102065588276
0.00102864599708
0.00109459951274
0.00140052536577
0.00227136584855
0.004101696579
0.0071217298149
0.0107414078434
0.0135824781818
0.0149157633108
0.0152621689326
0.0152774016044
0.0152190866862
0.0151487921381
0.0150784778591
0.0150098601649
0.0149434312158
0.0148793339736
0.0148170405722
0.0147567014298
0.0146984799854
0.014641772366
0.0145864307889
0.0145329004259
0.0144811943184
0.0144306804287
0.014381234912
0.0143334069618
0.0142871809643
0.0142419393654
0.0141976325306
0.0141545477938
0.0141129944291
0.0140729143373
0.0140337207059
0.0139954932227
0.01395859297
0.0139233156117
0.0138896480867
0.0138570520156
0.0138255899925
0.0137956361603
0.0137672793523
0.0137405328159
0.0137157023302
0.0136928623128
0.0136714818463
0.0136515918846
0.0136334923678
0.0136171828991
0.0136026790442
0.0135900061913
0.0135791822373
0.0135702152797
0.0135721931424
0.00101999409774
0.00101999409774
0.00101999409774
0.00101999409774
0.00101999409774
0.00101999409774
0.00101999409774
0.00101999409774
0.00101999409774
0.00101999409774
0.00101999409775
0.00101999409813
0.00101999411917
0.00101999524165
0.00102005491851
0.0010216170616
0.00103974739303
0.00116568653623
0.00164034414789
0.00283596345229
0.00511942692679
0.00849320999923
0.0119737305346
0.0142328258404
0.0150777833853
0.015228122643
0.0151871483412
0.0151093705931
0.015027606378
0.0149476503568
0.0148703796397
0.0147956181924
0.0147234969169
0.0146541148698
0.014586924456
0.0145220255238
0.0144594956859
0.0143987349613
0.014339893129
0.0142831488068
0.0142278907061
0.0141740007035
0.0141219754702
0.014071791652
0.01402280162
0.0139749651524
0.0139288284324
0.0138843709511
0.0138410341493
0.0137988498142
0.0137581641356
0.0137191978545
0.0136818533105
0.0136456409846
0.0136107527589
0.0135776152455
0.0135461668822
0.0135165613832
0.0134888167639
0.0134624916833
0.0134377484597
0.0134149452016
0.0133940252138
0.0133749175043
0.0133576207621
0.0133421960754
0.0133287144548
0.0133171935338
0.0133075990925
0.0133080960187
0.00101999409774
0.00101999409774
0.00101999409774
0.00101999409774
0.00101999409774
0.00101999409774
0.00101999409774
0.00101999409774
0.00101999409774
0.00101999409774
0.00101999409777
0.00101999409975
0.001019994207
0.00101999983155
0.00102029568592
0.00102477989501
0.00106693057795
0.00129804391409
0.00201045314437
0.00360932814009
0.0063791601285
0.00996148528367
0.0130583508717
0.0146727437838
0.0151294277997
0.0151521238706
0.015075165246
0.0149822622948
0.0148897705843
0.014800203857
0.0147140444628
0.0146313834397
0.0145519032632
0.0144754331125
0.0144015139178
0.0143302759626
0.0142618669457
0.0141956423607
0.0141316894198
0.0140701110245
0.014010267967
0.0139523685288
0.0138966274767
0.0138424051621
0.0137896143606
0.0137387524982
0.013689795333
0.0136421421854
0.0135957306035
0.0135508997442
0.0135080411778
0.0134671145616
0.0134274003039
0.0133888905855
0.0133520842426
0.013317482454
0.0132850673108
0.0132540384666
0.0132242918131
0.0131962813024
0.0131702914625
0.0131464358442
0.0131245704485
0.0131048117668
0.0130871208893
0.0130710285139
0.0130567205567
0.0130445250774
0.0130343145319
0.0130333146214
0.00101999409773
0.00101999409773
0.00101999409773
0.00101999409773
0.00101999409773
0.00101999409773
0.00101999409773
0.00101999409773
0.00101999409773
0.00101999409774
0.00101999409792
0.00101999410795
0.00101999464792
0.00102002305631
0.00102116377186
0.00103418231753
0.00113029536898
0.00152429069772
0.00256785858274
0.00464374136119
0.00786448593961
0.0114134586546
0.0139061966324
0.0149118020652
0.0150971195016
0.0150421436557
0.0149408184419
0.0148352292613
0.0147327397928
0.0146343802099
0.0145401094191
0.0144497649749
0.0143630970138
0.014279886256
0.014199668392
0.0141225252063
0.0140485460259
0.0139770403979
0.0139081189813
0.0138419052221
0.0137777675282
0.0137158646736
0.0136563389988
0.0135985511706
0.01354269759
0.0134890081799
0.0134368674798
0.0133861844334
0.0133375086366
0.0132908902678
0.0132457866795
0.0132021625104
0.0131602062337
0.0131202242067
0.0130823645547
0.0130461427466
0.0130115665508
0.012978832983
0.0129478666284
0.0129190629888
0.0128925909845
0.012867924762
0.0128450263341
0.0128241050317
0.0128050894864
0.0127879970719
0.0127729299003
0.0127599487038
0.0127490134074
0.0127464062747
0.00101999409773
0.00101999409773
0.00101999409773
0.00101999409773
0.00101999409773
0.00101999409773
0.00101999409773
0.00101999409773
0.00101999409773
0.00101999409776
0.00101999409902
0.00101999416691
0.00101999770488
0.00102018277189
0.00102334001365
0.00105625400757
0.00125155996442
0.00188631835421
0.00336292361262
0.00598438277474
0.00950951783205
0.0127133778844
0.0144756699308
0.0149901565425
0.0150054611661
0.0149041815924
0.0147858035871
0.0146691902591
0.0145571947082
0.0144502375626
0.014348050941
0.0142502947604
0.01415668408
0.0140670062199
0.0139810318958
0.0138985831557
0.0138191623421
0.0137427605016
0.0136695296083
0.0135988391139
0.0135307157398
0.0134652914306
0.0134019441809
0.0133408125848
0.0132821497855
0.0132253487597
0.0131702518414
0.0131173442302
0.0130666496627
0.0130175939969
0.0129701324144
0.0129248511626
0.0128817429894
0.012840184212
0.0128002340082
0.0127622542468
0.0127265856722
0.0126932183493
0.0126614584679
0.0126313311979
0.0126032609633
0.0125773029439
0.0125534534915
0.01253165572
0.0125121662919
0.01249498716
0.0124795105704
0.0124657802708
0.0124541306524
0.0124499263161
0.00101999409773
0.00101999409773
0.00101999409773
0.00101999409773
0.00101999409773
0.00101999409773
0.00101999409773
0.00101999409773
0.00101999409773
0.00101999409788
0.00101999410561
0.00101999450997
0.00102001496033
0.00102102036056
0.00103246362783
0.00111862109336
0.00148399795976
0.00247112166402
0.0044647889149
0.00761026505604
0.0111585404495
0.0137189791359
0.014769332695
0.0149484215666
0.0148682250739
0.014739680554
0.0146084106986
0.0144820664168
0.0143613602304
0.0142463294773
0.0141366707633
0.0140320695034
0.0139321570788
0.0138366234248
0.0137451968926
0.0136576066154
0.0135735820219
0.0134929529984
0.0134152959453
0.0133406336745
0.0132690746094
0.0131999788368
0.0131334350547
0.0130696147817
0.0130078969225
0.0129484233083
0.0128913973699
0.0128362306729
0.012782869419
0.0127318455734
0.0126831576983
0.0126362118986
0.0125909814743
0.0125477284379
0.0125068017918
0.012468250951
0.0124314472295
0.0123963521287
0.0123632212281
0.0123321058217
0.0123034888627
0.0122774616974
0.0122532638124
0.0122307205453
0.0122101073624
0.0121914946215
0.0121750017563
0.0121606948126
0.0121485144952
0.0121428280333
0.00101999409773
0.00101999409773
0.00101999409773
0.00101999409773
0.00101999409773
0.00101999409773
0.00101999409773
0.00101999409773
0.00101999409775
0.00101999409903
0.0010199941663
0.00101999760702
0.00102017364533
0.00102322276434
0.00105536285246
0.0012478417933
0.00187677604773
0.00334008470688
0.00593882653254
0.00943844606449
0.0126224509769
0.0143636576749
0.0148474877072
0.0148294240579
0.0146975324924
0.0145512384568
0.0144092966953
0.0142740608175
0.014145267291
0.0140228021003
0.0139062810072
0.0137955438038
0.0136899661492
0.0135889625353
0.0134924967799
0.0133999968597
0.0133113979408
0.0132267422046
0.013145572851
0.0130676943666
0.0129926273319
0.0129204421535
0.012851339838
0.0127846336735
0.0127204122882
0.0126589083591
0.012599486518
0.0125423468103
0.0124877331975
0.0124350134345
0.0123841483373
0.0123356916265
0.0122896527494
0.012245447228
0.0122030930607
0.0121628789489
0.0121250857924
0.0120896879356
0.0120559971711
0.012024062692
0.0119943467242
0.0119669272123
0.0119417464745
0.011918959592
0.0118983943879
0.0118793892055
0.0118621413015
0.0118471371241
0.0118343468004
0.0118272024016
0.00101999409773
0.00101999409773
0.00101999409773
0.00101999409773
0.00101999409773
0.00101999409773
0.00101999409773
0.00101999409773
0.00101999409792
0.00101999410778
0.0010199946243
0.00102002098421
0.00102116162397
0.00103395876675
0.00112759622782
0.00151361258195
0.00253848884235
0.0045806986208
0.00775263260492
0.0112557569109
0.0137078710674
0.0146577908872
0.0147751961391
0.0146557520349
0.0144964161684
0.0143377662349
0.0141867905551
0.0140436950131
0.0139077678123
0.0137789599608
0.0136566208297
0.013540086951
0.0134291024239
0.0133232741693
0.0132222801188
0.0131257809873
0.0130335447586
0.0129453367234
0.0128609023923
0.0127797124856
0.0127017793361
0.0126272484247
0.0125557281528