/*--------------------------------*- C++ -*----------------------------------*\
| =========                 |                                                 |
| \\      /  F ield         | foam-extend: Open Source CFD                    |
|  \\    /   O peration     | Version:     4.1                                |
|   \\  /    A nd           | Web:         http://www.foam-extend.org         |
|    \\/     M anipulation  |                                                 |
\*---------------------------------------------------------------------------*/
FoamFile
{
    version     2.0;
    format      ascii;
    class       volScalarField;
    location    "0.0009";
    object      T;
}
// * * * * * * * * * * * * * * * * * * * * * * * * * * * * * * * * * * * * * //

dimensions      [0 0 0 1 0 0 0];

internalField   nonuniform List<scalar> 
8400
(
226.836296603
226.836296603
226.836296603
226.836296603
226.836296603
226.836296603
226.836296603
226.836296603
226.836296603
226.836296603
226.836296603
226.836296603
226.836296603
226.836296603
226.836296603
226.836296603
226.836296603
226.836296614
226.836297243
226.83633193
226.838279303
226.875815426
499.681083962
3259.38694595
6754.78490519
12256.4164962
14472.1748837
15989.7278849
16913.0458606
17362.1732524
17526.8886882
17575.8237626
17589.9959856
17595.3994461
17598.5765703
17601.1391361
17603.4841686
17605.7548181
17608.016959
17610.3135139
17612.6760287
17615.1276742
17617.690515
17620.381979
17623.2202346
17626.2214106
17629.4584375
17632.1090699
17635.737113
17639.5163638
17643.4866147
17647.6478168
17651.9893263
17656.4922326
17661.1279115
17665.8971231
17670.7372393
17675.5940686
17680.419574
17685.1636816
17689.7640532
17694.1584831
17698.2838468
17702.0951882
17705.5260283
17708.5231079
17711.0484398
17713.0690558
17714.5785792
17722.6102346
226.836296599
226.836296599
226.836296599
226.836296599
226.836296599
226.836296599
226.836296599
226.836296599
226.836296599
226.836296599
226.836296599
226.836296599
226.836296599
226.836296599
226.836296599
226.836296599
226.8362966
226.836296652
226.836299606
226.836461133
226.845380586
226.959639811
1507.35897258
5225.98669502
10048.8365402
13238.0687833
15167.6321115
16460.3896969
17185.8994274
17500.4276677
17604.1331319
17634.8617752
17646.0955146
17653.0507265
17659.0432125
17664.77309
17670.3523807
17676.6373553
17682.0582182
17687.4715896
17692.8658112
17698.246724
17703.6266242
17709.0283375
17714.481189
17719.9728788
17725.515917
17731.1170226
17736.8120248
17742.573069
17748.4009769
17754.2885759
17760.2225209
17766.1833981
17772.1436596
17778.093784
17783.9880365
17789.7696554
17795.3945486
17800.8186964
17805.9850441
17810.8418398
17815.335485
17819.4589829
17823.1161299
17826.2687664
17828.8844032
17830.9379285
17832.4266712
17838.9316928
226.836296597
226.836296597
226.836296597
226.836296597
226.836296597
226.836296597
226.836296597
226.836296597
226.836296597
226.836296597
226.836296597
226.836296597
226.836296597
226.836296597
226.836296597
226.836296597
226.836296602
226.83629688
226.836312401
226.837182941
226.860714493
328.619195956
2728.3269619
6137.68183156
11715.7040706
14145.0376722
15805.351113
16849.3375451
17378.832027
17579.114272
17638.5146334
17657.1884437
17665.4198596
17671.5315834
17677.087754
17683.2372865
17688.4946283
17693.7476966
17698.9725683
17704.1767471
17709.372128
17714.5953965
17719.8432168
17725.1256628
17730.4557781
17735.8431013
17741.3297381
17746.8862737
17752.5151338
17758.2139371
17763.9620652
17769.7597386
17775.5906482
17781.4410042
17787.307996
17793.1218879
17798.8456804
17804.4406707
17809.8615175
17815.0612219
17819.9915101
17824.6514595
17828.9557785
17832.8488297
17836.290311
17839.2448709
17841.6818255
17843.5708335
17844.9256208
17850.3440566
226.836296596
226.836296596
226.836296596
226.836296596
226.836296596
226.836296596
226.836296596
226.836296596
226.836296596
226.836296596
226.836296596
226.836296596
226.836296596
226.836296596
226.836296596
226.836296597
226.83629662
226.836297979
226.836373094
226.840599769
226.90722594
839.71886023
4615.26979508
8529.33588531
12756.6125049
14847.6382953
16268.5807652
17099.4151203
17477.28349
17605.884015
17642.6356663
17655.1244705
17662.3386237
17668.3149471
17673.8720426
17680.0195316
17685.2286335
17690.4006133
17695.5196338
17700.5977668
17705.6545058
17710.7151317
17715.8180242
17720.9575238
17726.1488151
17731.4018674
17736.7400253
17742.1692477
17747.6722774
17753.245633
17758.8752556
17764.5466772
17770.2502207
17775.9600533
17781.6797345
17787.3445779
17792.9075654
17798.3277398
17803.5670656
17808.5804107
17813.3243637
17817.758069
17821.870815
17825.5761745
17828.8399406
17831.6328806
17833.9305796
17835.7152951
17836.9842047
17841.7531771
226.836296595
226.836296595
226.836296595
226.836296595
226.836296595
226.836296595
226.836296595
226.836296595
226.836296595
226.836296595
226.836296595
226.836296595
226.836296595
226.836296595
226.836296595
226.836296597
226.836296671
226.836300933
226.836534105
226.849321113
227.002552147
2016.04862475
5495.08209883
10649.6410291
13519.0872009
15367.4691083
16584.7269456
17243.9653237
17515.7902537
17600.6333017
17626.2063442
17636.6910843
17643.9664788
17650.3828593
17656.4356261
17662.2440353
17668.6587549
17674.1352747
17679.5584912
17684.9104399
17690.2021477
17695.4690551
17700.737502
17706.0314482
17711.3888405
17716.8145672
17722.301722
17727.8520654
17733.4793795
17739.1699763
17744.9014305
17750.6627272
17756.4544093
17762.2473048
17768.0059165
17773.6989102
17779.282372
17784.7004658
17789.9210258
17794.9121172
17799.6243295
17804.0085993
17808.016928
17811.6231905
17814.8052789
17817.5178076
17819.7434591
17821.468117
17822.687682
17827.0752486
226.836296595
226.836296595
226.836296595
226.836296595
226.836296595
226.836296595
226.836296595
226.836296595
226.836296595
226.836296595
226.836296595
226.836296595
226.836296595
226.836296595
226.836296595
226.8362966
226.83629687
226.836312006
226.837161609
226.860558103
324.932291856
2716.994617
6119.90792834
11681.5004136
14109.2132394
15761.1609032
16797.7977963
17320.1769584
17517.5417029
17576.4212886
17596.3067888
17606.2605262
17614.1418416
17621.3701503
17628.2473301
17634.8601233
17641.2389405
17647.4344854
17653.4409292
17660.1006664
17665.9264735
17671.7470038
17677.5518617
17683.3566951
17689.1626328
17694.9971794
17700.8682352
17706.8055175
17712.8015249
17718.8147022
17724.8342725
17730.8880472
17736.9471963
17742.9889737
17749.0452236
17754.202493
17759.993062
17765.5507576
17770.9078034
17776.0200293
17780.8324045
17785.2864026
17789.331105
17792.9351768
17796.0849099
17798.7668527
17800.9703254
17802.6861035
17803.9022313
17808.0780668
226.836296594
226.836296594
226.836296594
226.836296594
226.836296594
226.836296594
226.836296594
226.836296594
226.836296594
226.836296594
226.836296594
226.836296594
226.836296594
226.836296594
226.836296595
226.836296609
226.836297463
226.836345028
226.839037644
226.886728314
613.305853252
3819.71915229
7120.45071074
12423.1813324
14587.3759511
16060.8162998
16939.9655802
17351.7516631
17496.0116626
17539.4584549
17556.4450831
17566.626876
17575.3878011
17583.5735905
17591.3973874
17598.9328675
17606.2171237
17613.2808533
17620.205302
17626.9791822
17633.6418562
17640.2136895
17646.7279534
17653.2094265
17659.6965246
17666.2066217
17672.7232739
17679.2454302
17685.7607137
17692.2722642
17698.7838154
17705.3044624
17711.7866216
17718.2280138
17724.6139811
17730.8659619
17736.9378093
17742.7890549
17748.3837526
17753.6868781
17758.6732239
17763.2791699
17767.4636574
17771.1962501
17774.4598614
17777.2339602
17779.4923
17781.2220372
17782.4230431
17786.3808403
226.836296594
226.836296594
226.836296594
226.836296594
226.836296594
226.836296594
226.836296594
226.836296594
226.836296594
226.836296594
226.836296594
226.836296594
226.836296594
226.836296594
226.836296595
226.836296636
226.836298988
226.836428242
226.843612819
226.941082961
1255.07769091
5054.451771
9594.20426012
13028.323429
14983.4758794
16290.5291622
17030.4581907
17352.9855654
17460.2437191
17493.180644
17508.9101233
17519.7145245
17529.4107143
17538.6009549
17547.4319789
17555.9736313
17564.2435596
17572.3099732
17580.1986545
17587.9133259
17595.492939
17602.9623331
17610.3515978
17617.7168155
17625.03314
17632.3080699
17639.5479253
17646.764019
17654.0039486
17661.2339604
17668.4147108
17675.4984922
17682.4993372
17689.4182338
17696.2405137
17702.9450008
17709.5307922
17714.9911672
17720.9308504
17726.5293938
17731.756151
17736.5836885
17740.9656235
17744.8730165
17748.2820632
17751.1646791
17753.4999463
17755.2710472
17756.4796727
17760.2800289
226.836296594
226.836296594
226.836296594
226.836296594
226.836296594
226.836296594
226.836296594
226.836296594
226.836296594
226.836296594
226.836296594
226.836296594
226.836296594
226.836296594
226.836296595
226.836296685
226.83630175
226.836576827
226.851421228
227.026460904
2191.22407744
5589.93867153
10776.2744085
13541.8375185
15317.681363
16466.5946683
17080.4862302
17331.4564844
17411.7293788
17438.753789
17454.1983575
17465.9449204
17476.8251218
17487.2163156
17497.2207703
17506.9172187
17516.3419805
17525.4943176
17534.4042884
17543.1129728
17551.6823128
17560.1055412
17568.4681375
17576.7567443
17585.0182524
17592.4416264
17600.5612178
17608.6038511
17616.5975443
17624.5428685
17632.4076493
17640.1641368
17647.821469
17655.3533693
17662.7682276
17669.9833287
17676.9137571
17683.5125023
17689.7832532
17695.7636735
17701.4188829
17706.5975297
17711.2085164
17715.2522597
17718.7973283
17721.8655751
17724.3795726
17726.2556908
17727.4800198
17731.0901874
226.836296593
226.836296593
226.836296593
226.836296593
226.836296593
226.836296593
226.836296593
226.836296593
226.836296593
226.836296593
226.836296593
226.836296593
226.836296593
226.836296594
226.836296599
226.836296884
226.836312781
226.837198713
226.861358518
327.748223257
2718.87214659
6101.37867302
11596.7566109
13994.2098782
15597.6957149
16597.1999139
17100.5740972
17293.0626834
17353.9683763
17377.6684211
17392.6961504
17405.6444783
17417.8235336
17429.493434
17440.7465011
17451.6512697
17462.2367659
17472.550932
17482.6098575
17492.4402582
17502.113411
17511.6320515
17520.9814628
17530.2034516
17539.3514081
17548.4104283
17557.407578
17566.3339619
17575.163698
17583.8922726
17592.5276445
17601.0444146
17609.3873386
17617.6046192
17624.8474281
17632.6692802
17640.1363383
17647.2376601
17653.9534073
17660.2758919
17666.2227603
17671.6901537
17676.6059363
17680.9418417
17684.7018065
17687.8866289
17690.4733069
17692.4268854
17693.7319764
17697.3116159
226.836296593
226.836296593
226.836296593
226.836296593
226.836296593
226.836296593
226.836296593
226.836296593
226.836296593
226.836296593
226.836296593
226.836296593
226.836296593
226.836296593
226.836296607
226.836297403
226.836341322
226.838801556
226.883618995
572.11537665
3564.69726163
6886.40751747
12263.1653441
14402.1294629
15837.5589023
16690.614097
17095.1728491
17241.3165167
17289.1332377
17310.8514529
17326.674568
17340.8822697
17354.3596491
17367.4190467
17379.9786199
17392.0994964
17403.9557112
17415.4851901
17426.7291917
17437.7232468
17448.479047
17459.0925266
17469.5254525
17479.8064212
17490.0177531
17499.281879
17509.2556072
17519.071243
17528.7523554
17538.2901675
17547.7767283
17557.0711338
17566.1216953
17574.9511422
17583.5711546
17591.8972579
17599.9216481
17607.5475257
17614.8282923
17620.8083805
17627.154365
17632.9460047
17638.168588
17642.7833843
17646.7636824
17650.0986557
17652.7829711
17654.8163223
17656.1971407
17659.7379907
226.836296593
226.836296593
226.836296593
226.836296593
226.836296593
226.836296593
226.836296593
226.836296593
226.836296593
226.836296593
226.836296593
226.836296593
226.836296593
226.836296594
226.836296634
226.836298932
226.836424059
226.84330385
226.93820739
1183.26613778
4980.80053523
9235.39059829
12851.5309103
14769.0901958
16035.9041175
16753.997318
17070.856646
17179.7223177
17218.4732229
17239.1648964
17255.8963409
17271.4566913
17286.2709327
17300.6432354
17314.5424831
17327.9795699
17341.0588184
17353.9017347
17365.6898976
17377.8821573
17389.8091314
17401.5220837
17413.0745888
17424.4064875
17435.5732473
17446.6619883
17457.5559766
17468.251672
17478.8547286
17489.3536104
17498.8665602
17508.9489836
17518.7600156
17528.3384532
17537.629318
17546.5733907
17555.1258235
17563.2804687
17570.9724769
17578.1845285
17584.8856804
17591.0186336
17596.5987279
17600.6708951
17604.9116548
17608.4000995
17611.207585
17613.3304961
17614.7679359
17618.2307314
226.836296593
226.836296593
226.836296593
226.836296593
226.836296593
226.836296593
226.836296593
226.836296593
226.836296593
226.836296593
226.836296593
226.836296593
226.836296593
226.836296595
226.836296691
226.836302043
226.836589306
226.851854762
227.030873111
2175.24623015
5559.12655667
10614.1538216
13377.0074154
15095.6523452
16196.2855454
16783.9591039
17027.7298047
17109.1733731
17142.194987
17162.9209832
17180.8320038
17197.7239
17214.0635188
17229.1134849
17244.3777443
17259.2338076
17273.5996857
17287.6184606
17301.3339472
17314.741473
17327.8545935
17340.7386482
17353.4110205
17365.1097894
17377.3975407
17389.434316
17401.2781666
17413.0005604
17424.4748939
17435.7154917
17446.7539467
17457.6119333
17468.2781966
17477.7907965
17487.7825211
17497.3421238
17506.4820621
17515.1873775
17523.3979524
17531.070057
17538.14283
17544.6086124
17550.418367
17555.559265
17560.009198
17563.7782921
17565.9308919
17568.1459451
17569.5457524
17572.7685969
226.836296593
226.836296593
226.836296593
226.836296593
226.836296593
226.836296593
226.836296593
226.836296593
226.836296593
226.836296593
226.836296593
226.836296593
226.836296593
226.836296599
226.836296944
226.836315843
226.837354495
226.86390282
345.670551021
2761.70358392
6119.91330443
11524.2636225
13858.2958055
15380.6947021
16316.9645038
16787.6346282
16969.2863659
17032.395495
17061.3159912
17082.7542988
17101.3445016
17119.7823597
17137.4707576
17154.6664414
17171.2931557
17187.4385795
17203.1751768
17218.5484006
17232.7738216
17247.3709258
17261.6992896
17275.7224185
17289.5049518
17303.0075551
17316.2466868
17329.3190365
17341.4683428
17354.1511028
17366.5513632
17378.7196403
17390.5816233
17402.1832281
17413.5249895
17424.6185789
17434.4332171
17444.5635023
17454.2384637
17463.4561158
17472.1914736
17480.3233799
17487.782788
17494.5538145
17500.6624758
17506.1055867
17510.7937667
17514.665923
17517.7182777
17520.0296546
17520.6460508
17524.6338452
226.836296593
226.836296593
226.836296593
226.836296593
226.836296593
226.836296593
226.836296593
226.836296593
226.836296593
226.836296593
226.836296593
226.836296593
226.836296593
226.836296614
226.836297789
226.836361447
226.839842748
226.897935007
689.337943641
4117.71583633
7113.53257292
12271.3665092
14294.613571
15624.5713068
16402.2203471
16766.730659
16899.969989
16948.6738855
16976.0469258
16998.3426459
17019.12498
17038.9631702
17058.2354368
17076.8992352
17094.315266
17111.7927537
17128.8190892
17145.4549911
17161.6409256
17177.4952026
17192.2262893
17207.4480537
17222.3144291
17236.8868966
17251.2447305
17265.3351516
17279.1857096
17291.9418536
17305.3172127
17318.3206103
17330.9890111
17343.3514513
17355.4594968
17367.127943
17378.4119201
17388.4027042
17398.71161
17408.415829
17417.5424398
17426.0289329
17433.8758455
17441.0506147
17447.5148371
17453.1638751
17457.9711903
17461.964996
17465.1629456
17467.6038672
17468.2901705
17472.1150827
226.836296593
226.836296593
226.836296593
226.836296593
226.836296593
226.836296593
226.836296593
226.836296593
226.836296593
226.836296593
226.836296593
226.836296593
226.836296594
226.836296661
226.836300379
226.8364991
226.847096256
226.979180872
1605.40340975
5233.48809717
9742.75664559
12917.995813
14687.8721544
15825.1493297
16452.8731459
16724.4656294
16821.2255004
16861.4685885
16888.2789319
16911.7772174
16933.9878307
16954.7482464
16975.4410135
16995.4886451
17014.8919861
17033.8412769
17051.4893888
17069.4083219
17086.7948606
17103.8840077
17120.5019
17136.933559
17152.110964
17167.7889695
17183.1458438
17198.1892706
17212.9347721
17227.4771308
17240.9212723
17254.7845612
17268.2187581
17281.3347544
17294.0936989
17306.4436512
17318.3776348
17328.9310104
17339.8094339
17350.0332968
17359.5800409
17368.4804821
17376.7434863
17384.2520164
17390.9636511
17396.8404275
17401.8731514
17406.1157792
17409.5548837
17411.0970804
17412.6673328
17415.5529712
226.836296593
226.836296593
226.836296593
226.836296593
226.836296593
226.836296593
226.836296593
226.836296593
226.836296593
226.836296593
226.836296593
226.836296593
226.836296597
226.836296844
226.836310332
226.837039569
226.85976858
292.660553602
2574.39941202
5875.26230689
11063.917988
13495.1794453
15029.8758181
15979.1328462
16467.5694278
16664.0782998
16735.2546504
16770.683158
16797.8168945
16822.0093742
16845.7840771
16868.6500254
16890.8398532
16911.6630619
16932.4910862
16952.7137229
16972.3447279
16991.5385183
17009.4835028
17027.6907159
17045.4409897
17062.8959239
17079.9654423
17095.8822585
17112.2669369
17128.2642945
17143.9269803
17159.3929897
17173.5565503
17188.2660521
17202.5220311
17216.3378047
17229.7634016
17242.8093849
17255.3936933
17266.4896392
17277.8337166
17288.4697719
17298.5063898
17307.8444755
17316.4330642
17324.2275861
17331.1948187
17337.3489425
17341.7392576
17346.1258024
17349.5493946
17352.0550013
17353.644508
17356.3732005
226.836296593
226.836296593
226.836296593
226.836296593
226.836296593
226.836296593
226.836296593
226.836296593
226.836296593
226.836296593
226.836296593
226.836296593
226.836296611
226.836297606
226.836351095
226.83925189
226.890047807
603.824277195
3611.18851086
6727.6395717
11991.7052386
14014.1664543
15318.0547555
16085.6000807
16450.1607772
16588.7974431
16643.9514637
16677.1426061
16704.5729213
16730.873653
16756.1730305
16779.9077132
16803.4774864
16826.3444819
16848.4940765
16869.3234167
16890.3061431
16910.6335515
16930.6349171
16949.16668
16968.1352566
16986.6188703
17004.7003715
17021.6236229
17038.9579536
17055.8295458
17072.4269502
17088.6814144
17103.705329
17119.1349784
17134.1270973
17148.7102827
17162.7617459
17176.3720315
17188.5797382
17201.0827237
17212.941247
17224.0741305
17234.5176013
17244.2273289
17253.1242887
17261.2323285
17267.6182874
17273.9824602
17279.3764049
17283.8335595
17287.3423049
17289.8987923
17291.5075883
17294.0715188
226.836296592
226.836296592
226.836296592
226.836296592
226.836296592
226.836296592
226.836296592
226.836296592
226.836296592
226.836296592
226.836296592
226.836296594
226.836296669
226.836300768
226.83651657
226.847799365
226.986910331
1629.89723645
5221.84273456
9538.91274006
12752.8175804
14466.2087864
15550.3498227
16146.5058563
16407.2710211
16503.7523937
16548.6028285
16581.0425895
16610.2485806
16637.4302277
16664.1561603
16689.997532
16714.3392503
16738.5334166
16762.0165668
16784.1070404
16806.3140327
16827.8163008
16848.8738897
16868.6055341
16888.6048528
16908.1391994
16927.218843
16945.1086032
16963.3560733
16981.1346572
16998.5673974
17015.6160289
17031.421277
17047.5914857
17063.2377565
17078.4224477
17093.1440086
17106.4629361
17120.0551014
17132.9353227
17145.2300329
17156.8435444
17167.6993568
17177.7955597
17186.0781113
17194.4154626
17201.8148993
17208.3126975
17213.8541499
17218.4698581
17222.0993948
17224.7380573
17226.3917943
17228.8066078
226.836296592
226.836296592
226.836296592
226.836296592
226.836296592
226.836296592
226.836296592
226.836296592
226.836296592
226.836296592
226.836296593
226.836296599
226.836296964
226.83631642
226.837350861
226.864575283
331.40984659
2692.75932044
5970.69094054
11091.6389604
13414.4316467
14846.1213345
15718.8681939
16162.1794967
16341.2866791
16411.5173133
16451.3987976
16484.1685451
16514.0358937
16543.3056014
16570.887782
16598.1620048
16624.5419051
16649.2952923
16674.0979759
16698.0495383
16720.6908967
16743.3317877
16765.4773958
16786.2709638
16807.2223962
16827.7362067
16847.8027273
16866.5474752
16885.7036588
16904.3398064
16922.5598438
16939.5604424
16956.9002788
16973.7048876
16990.0537658
17005.8923132
17020.3061583
17034.9848254
17048.9874736
17062.3465967
17075.0290752
17087.0901508
17097.3074027
17107.6385046
17117.1264482
17125.6925314
17133.3276946
17140.0077243
17145.6815612
17150.3451729
17154.0350638
17156.7185732
17158.4010094
17160.6664119
226.836296592
226.836296592
226.836296592
226.836296592
226.836296592
226.836296592
226.836296592
226.836296592
226.836296592
226.836296592
226.836296593
226.836296627
226.836298486
226.836395945
226.841522366
226.919483752
859.511022804
4497.84679005
7273.08118389
12119.8876472
13978.5293872
15153.6967764
15826.5618372
16139.2868614
16260.4181985
16314.6627183
16351.9607683
16385.6780463
16416.9978137
16447.6941419
16477.2909521
16505.215501
16532.8835958
16558.9261058
16584.9293952
16610.082852
16633.7977113
16657.5557982
16680.6089812
16702.3936027
16724.4144442
16745.8014114
16765.8673774
16786.3068994
16806.2237602
16825.6227433
16843.7841526
16862.2889335
16880.1918327
16897.6718031
16914.6460573
16930.1521322
16945.9371423
16961.0738057
16975.5305171
16989.3672038
17001.4850202
17013.8210707
17025.2475059
17035.8096728
17045.4774757
17054.2435584
17062.0762117
17068.9587311
17073.7967093
17078.5818396
17082.2795584
17084.9866395
17086.6846733
17088.7975422
226.836296592
226.836296592
226.836296592
226.836296592
226.836296592
226.836296592
226.836296592
226.836296592
226.836296592
226.836296592
226.836296596
226.836296768
226.836306082
226.83679617
226.856665177
250.061557838
2334.33258093
5600.41633108
10292.0010456
12935.9704837
14450.5212671
15383.3791932
15876.9502134
16086.3742336
16168.8026768
16215.071893
16252.6163568
16286.8391485
16320.2068419
16351.5033403
16382.4931959
16411.6607806
16440.5526663
16467.726144
16494.8343413
16521.0143022
16545.729018
16570.5711469
16594.6527113
16617.322839
16640.1356554
16662.4607535
16683.3691113
16704.5422754
16725.1808336
16744.4962218
16764.1254705
16783.1883784
16801.7583574
16818.8868527
16836.3797584
16853.2138212
16869.4170856
16885.0897302
16898.977753
16913.1595467
16926.543771
16939.0845388
16950.786795
16961.6405206
16970.5651389
16979.505677
16987.4238653
16994.3738982
17000.2707646
17005.0936388
17008.8489228
17011.5617752
17013.2430496
17015.1429557
226.836296592
226.836296592
226.836296592
226.836296592
226.836296592
226.836296592
226.836296592
226.836296592
226.836296592
226.836296593
226.836296615
226.836297789
226.836358954
226.839557087
226.894329928
607.958984694
3518.80306653
6551.56639715
11657.8303003
13611.627666
14824.8719239
15533.3302111
15873.4405714
16009.9427217
16071.7415376
16114.8628501
16152.388172
16187.9497184
16222.6225307
16255.3028349
16287.4530266
16317.732826
16347.7906948
16375.9842184
16404.1578059
16430.6259938
16457.0104526
16482.685666
16506.8962236
16531.1400367
16554.7898867
16577.0122157
16599.4775134
16621.4181114
16641.905616
16662.6057905
16682.81946
16702.5288693
16720.7401351
16739.2368812
16757.059765
16774.4069348
16790.1290219
16806.0678118
16821.2503491
16835.6557138
16849.3377972
16861.147363
16873.0615473
16884.040859
16894.0543192
16903.0779982
16911.108718
16918.1082156
16924.1738854
16928.0758293
16931.9375156
16934.6567106
16936.3214982
16938.0243989
226.836296592
226.836296592
226.836296592
226.836296592
226.836296592
226.836296592
226.836296592
226.836296592
226.836296592
226.836296595
226.836296729
226.836303759
226.836659426
226.854157892
227.053407862
2110.37651047
5418.51156293
9724.20419718
12627.9970357
14161.2534995
15103.5128547
15609.4840802
15830.2398497
15920.6895834
15971.6184308
16013.8590128
16052.3956598
16089.2175611
16125.1562058
16159.0625605
16192.3998007
16223.7634815
16254.8206272
16284.0550163
16313.0686333
16340.400986
16367.7008902
16393.3984669
16419.1249291
16444.1256786
16467.690243
16491.3753786
16514.4774346
16536.1423777
16558.0154481
16579.3933561
16599.3029076
16619.438366
16638.9499066
16657.8968049
16675.2814678
16692.9280579
16709.8454792
16726.0349387
16741.5399973
16755.2412839
16769.0993827
16782.0664474
16794.1075084
16805.1656058
16815.4119497
16823.4762025
16831.6347927
16838.741229
16844.7438642
16849.6155254
16853.3888431
16856.1052863
16857.7819399
16859.3207346
226.836296592
226.836296592
226.836296592
226.836296592
226.836296592
226.836296592
226.836296592
226.836296592
226.836296593
226.836296615
226.836297779
226.836357334
226.839403817
226.892359487
571.11437708
3319.51595887
6423.30046652
11437.9139144
13394.0755362
14585.9658213
15280.689756
15619.1250129
15757.9771199
15824.0126598
15870.9403157
15913.5647095
15953.2335022
15991.1572715
16028.2416577
16063.1538006
16097.5373174
16129.9345789
16161.1533359
16192.1244646
16221.1346813
16250.0588792
16278.0917584
16304.4447238
16330.8549618
16355.6740482
16380.6134516
16404.9826065
16427.7344904
16450.7127186
16473.2043854
16494.0467049
16515.3228769
16535.8769265
16554.8514335
16574.1686096
16592.7413448
16610.6909223
16626.897173
16643.3673639
16659.0047815
16673.8346067
16687.8921841
16699.9273004
16712.1242026
16723.2516751
16733.3739419
16742.5951119
16750.7971827
16758.0034501
16762.997794
16767.9541368
16771.718166
16774.4140954
16776.0739588
16777.4279968
226.836296592
226.836296592
226.836296592
226.836296592
226.836296592
226.836296592
226.836296592
226.836296592
226.836296595
226.836296765
226.836305655
226.836759056
226.856601529
239.859667376
2222.88145446
5468.62500178
9680.63310472
12519.931859
13993.9492812
14889.5088866
15368.6970082
15579.3336671
15670.1093797
15724.8953574
15770.9065807
15814.2816728
15854.958009
15893.9812992
15932.0572225
15967.9761384
16002.5161686
16036.43749
16068.4174845
16100.1226479
16129.8814719
16159.5829031
16187.4070687
16215.2728692
16241.4096105
16267.5793603
16293.1090148
16316.9367596
16341.1712059
16363.654697
16386.4912497
16408.6897556
16429.263303
16450.1336925
16470.3047975
16489.9207022
16507.7081191
16525.8560125
16543.251654
16559.9518194
16574.7201526
16589.7515946
16603.8268767
16616.9372973
16629.1312933
16640.3570178
16649.4215624
16658.7493872
16667.0479806
16674.2451258
16680.2054772
16684.8959769
16688.521991
16691.2744746
16693.1324303
16694.5831354
226.836296592
226.836296592
226.836296592
226.836296592
226.836296592
226.836296592
226.836296592
226.836296593
226.83629663
226.836298564
226.836395697
226.841229409
226.916065416
749.42363431
4046.73955009
6614.72645571
11496.7479571
13330.1166755
14438.1272112
15073.2409961
15379.1792199
15507.6560178
15574.829621
15625.7534529
15671.9667239
15716.3399301
15758.0603205
15798.0013975
15836.2599931
15873.5874641
15908.8845009
15942.8094377
15976.2570252
16007.6578483
16038.9687747
16068.2395193
16097.5029941
16124.9948011
16152.5309782
16178.2940632
16204.227799
16229.4379812
16252.9550704
16276.7306484
16299.8894088
16321.3680088
16343.1707805
16364.3111222
16383.7266111
16403.4456868
16422.4620385
16440.7326858
16457.1742671
16473.8482828
16489.7104381
16504.8067108
16517.8309165
16531.062847
16543.1868501
16554.3500709
16564.5434957
16573.825605
16580.8564486
16588.0084699
16593.9524463
16598.7472595
16602.4625196
16605.1216921
16606.7715538
16607.7551115
226.836296592
226.836296592
226.836296592
226.836296592
226.836296592
226.836296592
226.836296592
226.8362966
226.836297021
226.836318169
226.837368671
226.866049819
308.541940926
2563.93342248
5722.07868898
10139.0864994
12603.3836587
13940.9785332
14736.2324273
15152.4345665
15335.6907474
15420.5728565
15477.8846316
15527.9158052
15574.8265573
15619.3759067
15661.9661085
15703.3584945
15742.3165905
15779.6334737
15815.4435447
15850.7271858
15883.9010689
15916.6265584
15947.4500763
15978.174516
16006.845732
16035.6222446
16062.5404153
16089.6652852
16114.949474
16140.4344211
16165.2233406
16188.2477302
16211.5974207
16234.3366817
16255.1600413
16276.4111955
16296.9996705
16315.766644
16334.8104684
16353.1098566
16370.6761004
16386.2874711
16402.1591954
16417.1824485
16431.1980072
16444.4556806
16455.405601
16466.5844114
16476.7268714
16485.8584384
16493.9455247
16500.9502804
16506.9384472
16510.5558267
16514.3332096
16516.9668395
16518.5444217
16519.2209339
226.836296592
226.836296592
226.836296592
226.836296592
226.836296592
226.836296592
226.836296594
226.836296691
226.836301576
226.836539344
226.847836219
226.988402791
1375.78477297
4935.47461517
7455.133959
11796.9539241
13402.9262033
14365.5846304
14899.4567352
15150.2296036
15260.9339251
15327.5696838
15381.9130403
15432.159804
15479.7027862
15524.9688132
15568.1516687
15609.4789302
15648.9318295
15687.5901518
15723.8947102
15758.7603532
15793.0939064
15825.3916031
15857.4350977
15887.4283105
15917.3828088
15945.4038884
15973.5782886
15999.8737756
16026.3845452
16051.0992607
16076.0002264
16100.1213883
16122.5967286
16145.332942
16167.4156504
16187.6522162
16208.221726
16228.1604262
16246.051502
16264.3275663
16281.829031
16298.4703841
16313.1122008
16328.0492303
16342.0158653
16355.0069871
16367.0736978
16378.2835366
16387.0296389
16396.0679335
16404.0158934
16410.9089845
16416.7247511
16421.4769669
16425.1531911
16427.8386001
16428.1554793
16428.6978259
226.836296592
226.836296592
226.836296592
226.836296592
226.836296592
226.836296593
226.836296621
226.836298039
226.836366682
226.839647276
226.895413881
549.188648745
3146.50548204
6212.64147642
10869.1633491
12839.435851
13969.2892803
14623.2446447
14950.8273594
15096.394145
15174.0329635
15233.6556385
15287.5269178
15338.169997
15386.2534554
15431.9921859
15475.5474941
15517.9728092
15557.740575
15595.9450651
15632.5579374
15668.5140945
15702.2641805
15734.8422281
15767.0504786
15797.2330778
15827.3644388
15855.5005795
15883.7518869
15910.1442377
15936.6035806
15962.4504288
15986.3412018
16010.5814229
16034.1209068
16055.753834
16077.7848381
16099.0735592
16118.4204715
16138.2520557
16157.2846623
16174.303773
16191.6641287
16208.1890404
16223.7794349
16238.6202763
16251.1586058
16264.1128129
16276.0240345
16286.8568567
16296.9192442
16304.4656763
16312.3178342
16319.0843229
16324.8015951
16329.4354747