/*--------------------------------*- C++ -*----------------------------------*\
| =========                 |                                                 |
| \\      /  F ield         | foam-extend: Open Source CFD                    |
|  \\    /   O peration     | Version:     4.1                                |
|   \\  /    A nd           | Web:         http://www.foam-extend.org         |
|    \\/     M anipulation  |                                                 |
\*---------------------------------------------------------------------------*/
FoamFile
{
    version     2.0;
    format      ascii;
    class       volVectorField;
    location    "0.0009";
    object      U;
}
// * * * * * * * * * * * * * * * * * * * * * * * * * * * * * * * * * * * * * //

dimensions      [0 1 -1 0 0 0 0];

internalField   nonuniform List<vector> 
8400
(
(16999.9999908 5.87977574146e-09 7.45783653101e-11)
(16999.9999908 5.9724627317e-09 7.43611043049e-11)
(16999.9999908 6.06336481573e-09 7.41458882224e-11)
(16999.9999908 6.15250906142e-09 7.39355123914e-11)
(16999.9999908 6.23992212042e-09 7.37367288864e-11)
(16999.9999908 6.32563122568e-09 7.35407102468e-11)
(16999.9999908 6.40966286593e-09 7.33475769389e-11)
(16999.9999908 6.49204375066e-09 7.31599487373e-11)
(16999.9999908 6.5727998199e-09 7.29782326501e-11)
(16999.9999909 6.6519584178e-09 7.28010857957e-11)
(16999.9999909 6.72954438087e-09 7.26273972857e-11)
(16999.9999909 6.80558366923e-09 7.24590254278e-11)
(16999.9999909 6.88010213927e-09 7.22951121215e-11)
(16999.9999909 6.95312528569e-09 7.21283672423e-11)
(16999.9999909 7.02468919881e-09 7.17699307956e-11)
(16999.9999909 7.09542247989e-09 6.00026198793e-11)
(16999.9999909 7.19961533587e-09 -5.88346944454e-10)
(16999.9999907 9.2496248656e-09 -3.62909201744e-08)
(16999.99998 1.10124357759e-07 -1.85442731619e-06)
(16999.9993427 5.67039200201e-06 -9.97120307208e-05)
(16999.9648512 2.79251902948e-05 -0.00103601523181)
(16996.8032339 0.00965057575921 -0.0100706692976)
(16937.2161237 -1.19304962626 -0.0706658335747)
(16348.8250013 -8.80616202535 -0.106998411836)
(13969.4260028 -32.1851991432 -0.0137931537796)
(10128.2776814 -51.4682790031 0.0419307257982)
(6485.63549511 -57.2146467806 0.0351931269169)
(3825.46219544 -44.2144126246 0.0229873273435)
(2242.97716946 -15.5145832943 0.0135430593966)
(1488.468607 21.5487456303 0.00721603245319)
(1207.0537276 59.6073169908 0.00375109192002)
(1113.46193307 94.9858178164 0.00229303751541)
(1073.56851293 126.891361853 0.00177272793272)
(1045.66707348 155.492178903 0.00156900593118)
(1019.37310272 181.144984433 0.00145934299549)
(992.416406547 204.205484195 0.00138009825191)
(964.454671417 224.990218455 0.00131352734508)
(935.576338392 243.766611552 0.00125171968919)
(905.944758287 260.789797401 0.00119199335615)
(875.718305387 276.261344865 0.00113551317701)
(845.042127084 290.361454687 0.00108195415327)
(814.03948563 303.24922723 0.00103003872032)
(782.817086967 315.064835506 0.000979204607399)
(751.465358481 325.932094084 0.000929026363089)
(720.061363993 335.960622379 0.000879053606862)
(688.670915682 345.247792597 0.000829676374969)
(657.423040063 353.879112561 0.000780547148346)
(626.207180203 361.926132678 0.000728494553261)
(595.059285703 369.470271314 0.000672375137269)
(564.185550324 376.562651566 0.000613820443724)
(533.543393548 383.253835009 0.000552106201413)
(503.149447956 389.586921573 0.000485114353665)
(473.027935904 395.597658486 0.000411088314726)
(443.200764371 401.31492522 0.000327913541569)
(413.685477028 406.76098031 0.000232979481351)
(384.50208259 411.951593315 0.000123072369126)
(355.669209975 416.896139785 -5.8626706572e-06)
(327.196394805 421.598273303 -0.000158966186582)
(299.092731008 426.056046672 -0.000342711538999)
(271.365327198 430.262327911 -0.000565281920635)
(244.022360113 434.205363699 -0.00083701411346)
(217.076144239 437.869213959 -0.0011709168051)
(190.537209979 441.234516899 -0.00158342012474)
(164.418917336 444.279201801 -0.00209532792722)
(138.73218594 446.979703573 -0.00273289400852)
(113.480391303 449.311581807 -0.00352921992682)
(88.6684314514 451.250387267 -0.00452600605783)
(64.3066189219 452.77226406 -0.0057753733193)
(40.4459566106 453.854123103 -0.00731175488419)
(28.7127256676 454.464468126 -0.0087259938838)
(16999.9999931 4.07399419723e-09 3.01479999849e-12)
(16999.9999931 4.13923762246e-09 3.16836520801e-12)
(16999.9999931 4.20325256582e-09 3.31840994386e-12)
(16999.9999931 4.26605636168e-09 3.46370873575e-12)
(16999.9999931 4.32766681817e-09 3.60707513886e-12)
(16999.9999931 4.38810174622e-09 3.74531600864e-12)
(16999.9999932 4.44737847126e-09 3.87928086393e-12)
(16999.9999932 4.50551445165e-09 4.01030304242e-12)
(16999.9999932 4.562526892e-09 4.13738112253e-12)
(16999.9999932 4.61843321596e-09 4.26156458175e-12)
(16999.9999932 4.67325070975e-09 4.38234665109e-12)
(16999.9999932 4.72699629095e-09 4.49948020505e-12)
(16999.9999932 4.77968690533e-09 4.61428157901e-12)
(16999.9999932 4.83134146734e-09 4.7219703719e-12)
(16999.9999932 4.8820927979e-09 4.64207109007e-12)
(16999.9999932 4.93862529352e-09 -5.8639392274e-12)
(16999.9999932 5.38211879463e-09 -5.98754433556e-10)
(16999.9999923 2.78551001648e-08 -3.18950827736e-08)
(16999.9999419 1.28178976213e-06 -1.72745420468e-06)
(16999.9969505 7.22829548167e-05 -4.42673175861e-05)
(16999.8352695 0.00358547053209 -0.000492181641633)
(16984.5274492 0.341833256215 -0.0072926839393)
(16819.9330931 2.14241409874 -0.0316376452296)
(15638.4454771 16.0269171413 -0.0328005719526)
(12531.2854598 49.4672378725 -0.00200570139293)
(8619.98915833 99.5405893398 0.0103201468139)
(5278.4782674 150.26367514 0.00855319231317)
(3025.29124443 195.744273607 0.00589072089043)
(1785.53028627 234.764061339 0.00372843505449)
(1246.77293273 267.24915717 0.00224794186885)
(1057.17611004 294.545691215 0.00146705536958)
(987.064661622 318.736042878 0.00116270312132)
(948.059432704 340.962910779 0.00106218692114)
(916.225914716 361.622320589 0.00102213598657)
(886.076969886 380.875505549 0.00099584851262)
(856.413844961 398.826190414 0.000971035195804)
(826.918943605 415.584115338 0.00094513490797)
(797.710021218 431.232781513 0.000918165066142)
(768.801691212 445.850237022 0.000890297572171)
(740.037351123 459.524714655 0.000861601851096)
(711.499512293 472.329786738 0.000832169078126)
(683.215868516 484.335505026 0.000802012931536)
(655.202259744 495.60747299 0.000771084282027)
(627.471797252 506.206583788 0.000739277567451)
(600.038980395 516.189034236 0.000706426895232)
(572.917577699 525.606434456 0.000672414717849)
(546.119303894 534.50589379 0.000636904451532)
(519.650188477 542.928537473 0.000599072341644)
(493.519178778 550.917747695 0.000558371346758)
(467.733115478 558.505636863 0.000514610480087)
(442.291445134 565.721806819 0.000467166433847)
(417.19942841 572.591374682 0.000415126469156)
(392.465344077 579.134829843 0.000357562308)
(368.098931121 585.368060199 0.000293428460566)
(344.106997204 591.302545284 0.000221557110615)
(320.497351162 596.945796479 0.000140703528168)
(297.278545014 602.300852357 4.95693248858e-05)
(274.452326321 607.36712781 -5.31803306366e-05)
(252.01777364 612.140580646 -0.000168836100935)
(229.972446284 616.613993741 -0.00029852303774)
(208.313796213 620.777494015 -0.000443045505201)
(187.041131306 624.618803819 -0.000602679581601)
(166.151607483 628.124386682 -0.000776863302313)
(145.650589379 631.279585312 -0.000963769901471)
(125.542307709 634.069394898 -0.00115979618613)
(105.821672642 636.479832865 -0.00135889550606)
(86.4858180904 638.498229962 -0.00155166914706)
(67.5329927921 640.113930264 -0.00172417078293)
(48.9866846323 641.318042163 -0.00184983115249)
(39.9212139548 641.961274586 -0.00185793982148)
(16999.9999946 2.56271373512e-09 -1.86467700573e-12)
(16999.9999946 2.6051309593e-09 -1.83932553665e-12)
(16999.9999946 2.6467868754e-09 -1.81378743994e-12)
(16999.9999946 2.6876906274e-09 -1.78864824568e-12)
(16999.9999946 2.72785115648e-09 -1.76333370109e-12)
(16999.9999946 2.76727802322e-09 -1.73848893314e-12)
(16999.9999946 2.80598071958e-09 -1.71351383573e-12)
(16999.9999946 2.8439688427e-09 -1.68795468934e-12)
(16999.9999946 2.88125206745e-09 -1.66325170135e-12)
(16999.9999946 2.91783996279e-09 -1.63875969135e-12)
(16999.9999946 2.95374210993e-09 -1.61367461461e-12)
(16999.9999946 2.98896810422e-09 -1.58865490975e-12)
(16999.9999946 3.02352806946e-09 -1.56503108461e-12)
(16999.9999946 3.05745117253e-09 -1.54696313624e-12)
(16999.9999946 3.09190352531e-09 -1.85220829214e-12)
(16999.9999946 3.19390813036e-09 -2.03243625985e-11)
(16999.9999945 7.241350726e-09 -1.05021254283e-09)
(16999.9999898 2.37609462534e-07 -5.42684705886e-08)
(16999.9997102 1.38199779872e-05 -2.98083414593e-06)
(16999.9842122 0.000744713338359 -4.13097074135e-05)
(16998.6843043 0.0649626900696 -0.000444752984052)
(16959.8261746 1.48417524844 -0.00515293578706)
(16564.8518754 14.1973467365 -0.0127457998179)
(14585.2497404 80.4951327235 -0.00664843215472)
(10883.6658728 205.319427844 0.00205299856795)
(7084.92139751 335.715309779 0.00337548002492)
(4174.66841212 440.362248706 0.00254617098707)
(2370.05596381 512.398110127 0.0017046949341)
(1466.43928136 557.120329497 0.00107092390005)
(1111.62175944 583.700137121 0.000688400902688)
(987.837669523 601.676991264 0.000529796340944)
(932.382026466 616.620612632 0.000494893682341)
(893.855080986 630.405671374 0.000501349002493)
(859.622473656 643.521815636 0.000515435032416)
(826.916438028 656.088323622 0.00052806295439)
(795.301127593 668.131414754 0.000537262609858)
(764.625148 679.679302231 0.000542908801403)
(734.65007244 690.760852492 0.00054550076854)
(705.400361957 701.382675482 0.000545360957689)
(676.8512401 711.564670023 0.000542566574022)
(648.974509911 721.325011478 0.000537274231584)
(621.743977086 730.681447741 0.000529649820247)
(595.135881989 739.651518214 0.000519773445066)
(569.127057023 748.252753315 0.000507668803566)
(543.697438996 756.502199309 0.000493309981575)
(518.827423198 764.416286401 0.000476618112868)
(494.503504909 772.01033395 0.000457450624589)
(470.711469403 779.298639284 0.00043560638364)
(447.430221696 786.294875883 0.000410853966898)
(424.641205306 793.01080866 0.000382932791759)
(402.327284996 799.456517 0.000351536585603)
(380.474201178 805.639961149 0.000316325525934)
(359.070534382 811.566689492 0.00027694893457)
(338.105561313 817.239895015 0.000233057775208)
(317.576417838 822.65990576 0.000184316585862)
(297.47966679 827.825197831 0.000130433627558)
(277.806660607 832.732418415 7.11962288381e-05)
(258.549276495 837.376234968 6.50185655346e-06)
(239.696577102 841.749739763 -6.35969379467e-05)
(221.23684999 845.844514064 -0.000138842907417)
(203.155784635 849.651197359 -0.000218729133734)
(185.446176428 853.159367114 -0.000302461370836)
(168.103835041 856.358113955 -0.000388921518183)
(151.11958438 859.237296664 -0.000476632504099)
(134.485925842 861.787007782 -0.000563765998482)
(118.195380012 863.998456678 -0.000648203664983)
(102.240474761 865.864348196 -0.000727646801087)
(86.6140445646 867.379265334 -0.000799808983451)
(71.328332897 868.538888706 -0.0008613395408)
(63.8587697448 869.139803646 -0.000890156526426)
(16999.9999956 1.74275937028e-09 -1.12066960407e-12)
(16999.9999956 1.77198986098e-09 -1.12486399891e-12)
(16999.9999956 1.80070905073e-09 -1.12884511477e-12)
(16999.9999956 1.82892289481e-09 -1.13264838671e-12)
(16999.9999956 1.85663719452e-09 -1.13657805285e-12)
(16999.9999956 1.88385744279e-09 -1.13968281391e-12)
(16999.9999956 1.91058967253e-09 -1.1423741141e-12)
(16999.9999956 1.93683926345e-09 -1.14489847489e-12)
(16999.9999956 1.96261219237e-09 -1.14733976439e-12)
(16999.9999956 1.98791449552e-09 -1.14898230613e-12)
(16999.9999956 2.01275241928e-09 -1.15093449368e-12)
(16999.9999956 2.03713219748e-09 -1.15283185224e-12)
(16999.9999956 2.06106234528e-09 -1.15400506381e-12)
(16999.9999956 2.08469654171e-09 -1.16422697983e-12)
(16999.9999956 2.11659180596e-09 -1.65909443804e-12)
(16999.9999956 2.65113775028e-09 -2.9206633053e-11)
(16999.9999951 3.22673801046e-08 -1.5452592305e-09)
(16999.9999721 1.72776759681e-06 -7.89617382528e-08)
(16999.9985926 0.000102597074367 -4.2284523906e-06)
(16999.923734 0.00546438122119 -4.48625574655e-05)
(16992.8194996 0.525263531178 -0.000602513269867)
(16890.9634327 6.40906276684 -0.00406606972714)
(16036.2032938 55.8124517742 -0.00601292452276)
(13297.2738447 210.137625655 -0.0013393736999)
(9400.36007963 432.608534143 0.00147861502343)
(5865.73989163 634.492759548 0.00137887700602)
(3379.03241211 778.264501408 0.000970154749395)
(1951.18720306 863.609958168 0.00062532674307)
(1299.14796204 905.283725499 0.000386561260814)
(1061.21415487 922.565742404 0.000263777443186)
(973.103939046 930.709932779 0.000227556808963)
(924.812443824 936.468573846 0.0002308190022)
(886.289498943 941.704350778 0.000245491258325)
(850.791014958 946.830274708 0.000261891519335)
(816.792162938 951.930446754 0.000277440811637)
(784.114843689 957.004774787 0.000291514919403)
(752.650260006 962.03278963 0.000303833108394)
(722.157195878 967.034000844 0.000314235206508)
(692.647519517 971.992423075 0.000322716641603)
(664.081929917 976.899983432 0.000329261010343)
(636.4121632 981.750496002 0.000333817518686)
(609.591505342 986.538232161 0.000336348514789)
(583.580233283 991.257870648 0.000336809711198)
(558.342427169 995.904924111 0.000335147533866)
(533.843742738 1000.47569389 0.000331295790537)
(510.051996113 1004.96694131 0.00032517305162)
(486.93807074 1009.37556502 0.000316685599706)
(464.475944019 1013.69810146 0.000305727576311)
(442.637496098 1017.93132026 0.000292178786507)
(421.394137136 1022.07216434 0.000275909189769)
(400.718599077 1026.1172187 0.000256789061348)
(380.583001973 1030.06237345 0.000234701113384)
(360.96092885 1033.90236626 0.000209551779693)
(341.827337152 1037.63087726 0.000181280369599)
(323.169961921 1041.23995596 0.000149867223224)
(304.983474629 1044.72036562 0.000115340807921)
(287.255410795 1048.06301698 7.77913510628e-05)
(269.969855413 1051.25861978 3.7394347143e-05)
(253.105754277 1054.29753921 -5.57129166584e-06)
(236.641874719 1057.169738 -5.07183631887e-05)
(220.560893374 1059.86478081 -9.75516930122e-05)
(204.848443934 1062.37247326 -0.000145469193573)
(189.497972484 1064.68251612 -0.000193768768206)
(174.500182637 1066.78563135 -0.000241662569844)
(159.838144916 1068.67417148 -0.000288297496901)
(145.49757004 1070.34154637 -0.00033278610678)
(131.465760172 1071.78238241 -0.000374250430809)
(117.73241131 1072.99277687 -0.000411870746772)
(104.304082938 1073.96932038 -0.000444560619086)
(97.7222748068 1074.46708061 -0.000459816972788)
(16999.9999963 1.25865899068e-09 -5.28776590352e-13)
(16999.9999963 1.27991944916e-09 -5.34242638284e-13)
(16999.9999963 1.30081290966e-09 -5.39506923879e-13)
(16999.9999963 1.32134311185e-09 -5.44632586046e-13)
(16999.9999963 1.34151434731e-09 -5.49733177841e-13)
(16999.9999963 1.3613305359e-09 -5.54881339586e-13)
(16999.9999963 1.38079575951e-09 -5.60130992316e-13)
(16999.9999963 1.39991404859e-09 -5.64606027105e-13)
(16999.9999963 1.41868946633e-09 -5.69017313001e-13)
(16999.9999963 1.43712608243e-09 -5.73753942617e-13)
(16999.9999963 1.45522798935e-09 -5.78011984938e-13)
(16999.9999963 1.47299980335e-09 -5.82279446622e-13)
(16999.9999963 1.49045617998e-09 -5.86431107222e-13)
(16999.9999963 1.50821683802e-09 -6.0711959332e-13)
(16999.9999963 1.56170221847e-09 -1.56156702776e-12)
(16999.9999962 3.68348002612e-09 -5.4694868007e-11)
(16999.999995 1.24407969033e-07 -2.8571552018e-09)
(16999.9999228 6.98928658886e-06 -1.55024699834e-07)
(16999.9956394 0.000411062945774 -3.804946299e-06)
(16999.761502 0.0221554417606 -4.21428985577e-05)
(16977.7742921 2.07035430924 -0.000690095704019)
(16763.1973949 19.9503648424 -0.00250551792589)
(15368.1804885 134.973662741 -0.00217375235628)
(12063.0903558 399.810369888 2.39860447364e-05)
(8168.95744623 711.126378518 0.000738641265867)
(4952.70694723 966.543075977 0.000585594274902)
(2838.06812573 1133.12969924 0.000391537683616)
(1707.08514487 1220.36108801 0.000241634588957)
(1231.45082058 1253.65770847 0.000147497509628)
(1063.60771598 1260.99933101 0.000108168717215)
(993.971129185 1260.18387252 0.000103407947555)
(949.01709049 1257.66190973 0.000112034396536)
(910.344093081 1255.04596689 0.000124163990796)
(874.055399611 1252.65776196 0.000136846994752)
(839.314188048 1250.54832181 0.000149277114882)
(805.837092439 1248.7251055 0.000161194818286)
(773.688684455 1247.15130933 0.000172423383711)
(742.806763549 1245.81403378 0.000182787862791)
(712.967655096 1244.71682587 0.000192149707626)
(684.182509063 1243.83522892 0.000200362369615)
(656.39767127 1243.16489061 0.000207304273126)
(629.556876878 1242.69062857 0.00021289418448)
(603.620875501 1242.39940875 0.000217029613736)
(578.555795352 1242.27876634 0.000219598045676)
(554.327121705 1242.31702451 0.000220497828486)
(530.897722899 1242.50301211 0.000219630699175)
(508.228739073 1242.82599384 0.000216903344247)
(486.283738497 1243.27519227 0.00021222895504)
(465.034871637 1243.83960168 0.000205526161502)
(444.458116245 1244.50868366 0.000196720983276)
(424.518852657 1245.27321423 0.000185754676164)
(405.172517126 1246.12437473 0.000172593815332)
(386.377038287 1247.05264098 0.000157236931048)
(368.104754339 1248.0466932 0.000139704306614)
(350.344781718 1249.09399454 0.000120060549096)
(333.092661738 1250.18461712 9.84419813652e-05)
(316.339823635 1251.29948796 7.49996331151e-05)
(300.062549587 1252.43035456 4.99042455714e-05)
(284.225723398 1253.5673843 2.34140348776e-05)
(268.8005893 1254.70050951 -4.14540667063e-06)
(253.769580343 1255.81915043 -3.24106716958e-05)
(239.124548382 1256.91252817 -6.09811719725e-05)
(224.855689154 1257.97083194 -8.94264601336e-05)
(210.947527818 1258.98566582 -0.00011729409787)
(197.381920419 1259.95013746 -0.000144120034368)
(184.136525696 1260.85895104 -0.000169443089106)
(171.189923477 1261.70790344 -0.000192824485122)
(158.528932203 1262.49326539 -0.000213867746007)
(146.158660084 1263.21102459 -0.00023212918405)
(140.070259536 1263.57421944 -0.000240660269209)
(16999.9999968 9.48339044257e-10 -2.55526406931e-13)
(16999.9999968 9.64443674191e-10 -2.58945491555e-13)
(16999.9999968 9.80272057267e-10 -2.62059754377e-13)
(16999.9999968 9.95827095972e-10 -2.64866944832e-13)
(16999.9999968 1.01111225796e-09 -2.68054386301e-13)
(16999.9999968 1.0261304846e-09 -2.71237991559e-13)
(16999.9999968 1.04088486226e-09 -2.73647374022e-13)
(16999.9999968 1.05537847855e-09 -2.76562694116e-13)
(16999.9999968 1.06961433121e-09 -2.79779630365e-13)
(16999.9999968 1.08359560461e-09 -2.82685182159e-13)
(16999.9999968 1.097325129e-09 -2.85867446801e-13)
(16999.9999968 1.11080742458e-09 -2.8861851012e-13)
(16999.9999968 1.12409169067e-09 -2.92361030487e-13)
(16999.9999968 1.13988888715e-09 -3.2539973235e-13)
(16999.9999968 1.31536341335e-09 -2.06042860218e-12)
(16999.9999967 1.07632400936e-08 -9.90449317822e-11)
(16999.9999921 5.5457451111e-07 -5.13524170257e-09)
(16999.9997224 3.26709177508e-05 -2.83881464215e-07)
(16999.984708 0.00180615365072 -3.94874226214e-06)
(16998.7304024 0.151644694593 -4.53050953659e-05)
(16960.3698885 4.40993546481 -0.000553545641289)
(16571.0436376 45.7224238752 -0.00139038127915)
(14611.6552366 251.890363722 -0.000721827809135)
(10937.1889704 631.867677949 0.000231537877622)
(7162.61274357 1018.22035196 0.000362934086779)
(4269.02140784 1310.53801893 0.000262120083706)
(2474.45220608 1487.25937343 0.000166202363428)
(1576.68503796 1569.10985273 9.69376276913e-05)
(1224.24697395 1592.15479593 5.83362968731e-05)
(1098.98001785 1590.43947881 4.626918909e-05)
(1039.45343857 1581.93306881 4.8559566402e-05)
(996.050497659 1572.25916159 5.58378336765e-05)
(957.065007565 1562.73999831 6.44710118341e-05)
(920.120597297 1553.62907583 7.34528597473e-05)
(884.703351862 1544.96665914 8.24796334293e-05)
(850.666834026 1536.75126189 9.14052132803e-05)
(817.931320001 1528.97699545 0.000100124712756)
(786.424688246 1521.62558578 0.000108516815882)
(756.01231128 1514.69805598 0.000116439624902)
(726.79605979 1508.16400442 0.000123767307379)
(698.732489119 1502.01048534 0.000130384560626)
(671.607828319 1496.24725062 0.00013617728474)
(645.44753059 1490.85396504 0.000141034619919)
(620.221699903 1485.81728883 0.000144848539296)
(595.886366599 1481.12574888 0.000147515026579)
(572.391450016 1476.76900188 0.000148936513304)
(549.691261712 1472.73660829 0.000149025093129)
(527.75581218 1469.01638962 0.000147705111832)
(506.574444223 1465.59404751 0.000144915093437)
(486.132729715 1462.4558171 0.000140609322021)
(466.385074679 1459.59203571 0.000134759806556)
(447.268607033 1456.9954943 0.000127360161755)
(428.729659653 1454.65815338 0.000118430254129)
(410.742870788 1452.56844553 0.000108018446628)
(393.389268295 1450.70175233 9.62030221127e-05)
(376.499973471 1449.06464617 8.30952417915e-05)
(360.051059901 1447.64682413 6.88371364685e-05)
(344.178395848 1446.41755472 5.3602362484e-05)
(328.771508443 1445.37750624 3.75962242116e-05)
(313.807496518 1444.51707297 2.10528423407e-05)
(299.271647508 1443.82618593 4.22972569913e-06)
(285.149663053 1443.29566101 -1.25972302849e-05)
(271.425154423 1442.91729218 -2.91392252288e-05)
(258.081043381 1442.68382494 -4.51018548977e-05)
(245.094506807 1442.58962866 -6.01936027428e-05)
(232.435933595 1442.63092144 -7.41349096048e-05)
(220.077534907 1442.80487963 -8.66662707692e-05)
(208.006671195 1443.10789701 -9.75548871162e-05)
(196.238318913 1443.53385454 -0.000106572984677)
(190.426041129 1443.75052978 -0.000110653330942)
(16999.9999972 7.37019332924e-10 -1.28778409355e-13)
(16999.9999972 7.49601140632e-10 -1.30310491239e-13)
(16999.9999972 7.61969144193e-10 -1.3233683296e-13)
(16999.9999972 7.74124770353e-10 -1.33831702468e-13)
(16999.9999972 7.86070455058e-10 -1.35483834233e-13)
(16999.9999972 7.97808833654e-10 -1.37686622917e-13)
(16999.9999972 8.09341861581e-10 -1.39450529316e-13)
(16999.9999972 8.20672008717e-10 -1.40783198578e-13)
(16999.9999972 8.31801866218e-10 -1.42138627504e-13)
(16999.9999972 8.42733901399e-10 -1.44003885328e-13)
(16999.9999972 8.53470030722e-10 -1.45613298639e-13)
(16999.9999972 8.64015271851e-10 -1.47412382737e-13)
(16999.9999972 8.74545114348e-10 -1.50168542123e-13)
(16999.9999972 8.951119552e-10 -1.99550525355e-13)
(16999.9999972 1.51185387732e-09 -2.86296697062e-12)
(16999.9999969 3.69069623405e-08 -1.48972234728e-10)
(16999.9999825 2.08448655745e-06 -7.58842403459e-09)
(16999.9991196 0.000124720019372 -4.09565285965e-07)
(16999.9519303 0.00677646886579 -4.62848588442e-06)
(16995.5277151 0.636428957502 -5.78971336128e-05)
(16921.3353724 10.2758237026 -0.00044786792132)
(16252.0525797 95.4583215449 -0.00072990302483)
(13765.120224 409.609587346 -0.000191784483088)
(9915.04716967 894.54961939 0.000180153846709)
(6332.03616391 1340.14111428 0.000172925271125)
(3749.34383554 1655.28268694 0.000117197476099)
(2231.87895716 1832.57290753 7.09444254215e-05)
(1520.13556903 1904.6428155 3.96601235907e-05)
(1254.97740855 1917.34640125 2.44252697325e-05)
(1156.46628625 1907.89101892 2.14467785081e-05)
(1102.81583197 1892.93764247 2.43699426388e-05)
(1060.14251657 1877.19012959 2.9327772369e-05)
(1020.7879143 1861.71690115 3.50012039178e-05)
(983.261739743 1846.72356723 4.10209702768e-05)
(947.225720576 1832.2530383 4.72471959829e-05)
(912.56799885 1818.31423664 5.35849995738e-05)
(879.219041727 1804.90846263 5.99451556907e-05)
(847.117653056 1792.03445837 6.6232040115e-05)
(816.210377107 1779.68949991 7.23480244236e-05)
(786.449384099 1767.87279308 7.82025076027e-05)
(757.780699982 1756.57225146 8.36977444683e-05)
(730.153852273 1745.78536522 8.87277818622e-05)
(703.525794531 1735.50542721 9.31953175673e-05)
(677.855640446 1725.72443043 9.70092731064e-05)
(653.105445382 1716.434038 0.000100081126588)
(629.240416216 1707.6257511 0.000102329232249)
(606.2210264 1699.29192618 0.000103681250474)
(584.009435672 1691.42472537 0.000104076510767)
(562.577139055 1684.01429493 0.000103468309962)
(541.899800787 1677.05005536 0.000101825858379)
(521.945212262 1670.52289773 9.91357455158e-05)
(502.669439113 1664.42647656 9.54032709152e-05)
(484.022678211 1658.75575465 9.06545352493e-05)
(465.967172903 1653.50408414 8.49402668787e-05)
(448.495137295 1648.65996636 7.83347101876e-05)
(431.603130111 1644.20776648 7.09315284781e-05)
(415.279904073 1640.14397576 6.28520337663e-05)
(399.49632716 1636.46409928 5.42453412054e-05)
(384.211207153 1633.15629218 4.52717885734e-05)
(369.393378983 1630.21657626 3.61054204179e-05)
(355.026558144 1627.63829561 2.69406519026e-05)
(341.101725342 1625.41323448 1.79819222052e-05)
(327.601086684 1623.53529787 9.43699065168e-06)
(314.503987825 1621.99950187 1.51397790026e-06)
(301.788415105 1620.80156897 -5.58428769083e-06)
(289.434514141 1619.93748779 -1.1665226605e-05)
(277.424912069 1619.40364828 -1.65508128465e-05)
(265.744055891 1619.19696057 -2.00813519683e-05)
(254.390404564 1619.31251244 -2.21196698341e-05)
(248.735448055 1619.38003939 -2.27802920097e-05)
(16999.9999975 5.86636311254e-10 -6.56996864636e-14)
(16999.9999975 5.96701445688e-10 -6.68390561247e-14)
(16999.9999975 6.06596123126e-10 -6.78874323781e-14)
(16999.9999975 6.16322322015e-10 -6.90120392983e-14)
(16999.9999975 6.25881757594e-10 -6.93127128418e-14)
(16999.9999975 6.35276255658e-10 -7.02133471215e-14)
(16999.9999975 6.44507601411e-10 -7.10924135663e-14)
(16999.9999975 6.53577259096e-10 -7.21372705091e-14)
(16999.9999975 6.62487265921e-10 -7.27094401634e-14)
(16999.9999975 6.71239687023e-10 -7.36081906831e-14)
(16999.9999975 6.79835798008e-10 -7.45048595154e-14)
(16999.9999975 6.88288075061e-10 -7.52760490726e-14)
(16999.9999975 6.97172719202e-10 -7.72319234817e-14)
(16999.9999975 7.39721424724e-10 -1.28549398382e-13)
(16999.9999975 2.73107495824e-09 -2.86283541401e-12)
(16999.9999968 1.17015647234e-07 -1.48747339597e-10)
(16999.9999574 6.65050198323e-06 -7.4015581261e-09)
(16999.9976164 0.000393947519342 -3.81253897367e-07)
(16999.8707492 0.0212122991511 -3.85229210397e-06)
(16987.816045 2.01121010897 -5.54447614009e-05)
(16847.2884264 23.3726185793 -0.000272552234841)
(15788.5033236 183.166460192 -0.000311064992273)
(12838.7439648 620.36224237 -3.84192374308e-05)
(8988.23787996 1188.8995584 7.88835312082e-05)
(5640.05507806 1676.30548681 6.32402083641e-05)
(3352.2784466 2000.80682609 4.11229638022e-05)
(2077.05583137 2170.12177504 2.44653067948e-05)
(1515.09320361 2228.84890965 1.42882865591e-05)
(1312.52536918 2231.06468288 1.04823971937e-05)
(1231.28226518 2214.45002456 1.09929027004e-05)
(1180.90292868 2193.62482428 1.34489102708e-05)
(1138.33693593 2172.35154185 1.66793360784e-05)
(1098.43471449 2151.47484752 2.03249875039e-05)
(1060.23206413 2131.15168815 2.42747428918e-05)
(1023.49422678 2111.41848573 2.84666261424e-05)
(988.128822682 2092.28683434 3.28433185033e-05)
(954.071582979 2073.76289248 3.73438797161e-05)
(921.271240533 2055.84985735 4.19028202112e-05)
(889.687059559 2038.54838398 4.64507688214e-05)
(859.273190712 2021.85917875 5.09153301007e-05)
(829.9773517 2005.78334497 5.52216588692e-05)
(801.747092915 1990.32169503 5.92938742301e-05)
(774.531023895 1975.47384914 6.30571191051e-05)
(748.291364299 1961.23688261 6.64389723343e-05)
(723.000715018 1947.6060359 6.9371646611e-05)
(698.624874833 1934.58114764 7.17939209164e-05)
(675.122780056 1922.15184091 7.36520155464e-05)
(652.44799486 1910.31935394 7.49022933242e-05)
(630.565205328 1899.0799882 7.5513300856e-05)
(609.457528804 1888.42643574 7.54669027779e-05)
(589.108026245 1878.35191021 7.47603096659e-05)
(569.486289836 1868.85292162 7.34079814475e-05)
(550.544207997 1859.92941299 7.14425319834e-05)
(532.232051344 1851.58141867 6.89142336096e-05)
(514.495303265 1843.80903998 6.58905585489e-05)
(497.349665615 1836.60130903 6.24576214805e-05)
(480.955477076 1829.92410083 5.87210877917e-05)
(465.075550788 1823.81131488 5.4803631449e-05)
(449.591061344 1818.27630592 5.08395190683e-05)
(434.68602823 1813.27957322 4.69717313386e-05)
(420.282732734 1808.82652253 4.33512948998e-05)
(406.341602211 1804.91761181 4.01383033491e-05)
(392.856995787 1801.54976205 3.75000436717e-05)
(379.813842392 1798.72137964 3.56015938203e-05)
(367.189133192 1796.42973323 3.45955593695e-05)
(354.963653212 1794.66964068 3.46218580732e-05)
(343.128175761 1793.43513561 3.58146271668e-05)
(331.672940444 1792.72259497 3.83015267151e-05)
(320.587151217 1792.52888079 4.21782358799e-05)
(315.017385144 1792.45078996 4.44358290329e-05)
(16999.9999978 4.75986833492e-10 -3.31344982341e-14)
(16999.9999978 4.84191495261e-10 -3.36183888125e-14)
(16999.9999978 4.92258197924e-10 -3.4137639763e-14)
(16999.9999978 5.00187922278e-10 -3.46935032941e-14)
(16999.9999978 5.07981913761e-10 -3.51155474939e-14)
(16999.9999978 5.15641522535e-10 -3.57887405804e-14)
(16999.9999978 5.2316939333e-10 -3.6188126877e-14)
(16999.9999978 5.30566699641e-10 -3.69618038941e-14)
(16999.9999978 5.37834509092e-10 -3.74838762942e-14)
(16999.9999978 5.44974183589e-10 -3.83093543114e-14)
(16999.9999978 5.51987892127e-10 -3.89158142829e-14)
(16999.9999978 5.58902887246e-10 -3.92879348533e-14)
(16999.9999978 5.67175806834e-10 -4.07821216609e-14)
(16999.9999978 6.59982373603e-10 -9.14626335429e-14)
(16999.9999977 5.57534761746e-09 -2.69382011798e-12)
(16999.9999963 2.85011783589e-07 -1.30055219728e-10)
(16999.9999119 1.60840747013e-05 -6.63573317321e-09)
(16999.9949616 0.000939104935624 -1.36576960663e-07)
(16999.7253612 0.0508183592891 -1.34690983665e-06)
(16974.9619023 4.63752212456 -1.8997931597e-05)
(16736.535938 46.5825473909 -5.77206102092e-05)
(15263.8541972 302.492733804 -4.89405928513e-05)
(11942.611076 869.26627609 -1.41651591255e-05)
(8145.30316337 1510.67550405 -4.14785489144e-06)
(5058.46210176 2023.17096309 -3.4268964376e-06)
(3051.17109421 2344.92050438 -1.96040007408e-06)
(1989.95505668 2499.25107484 7.73943146033e-08)
(1548.75711553 2542.45088116 2.21873221763e-06)
(1391.17209387 2534.37862024 4.23692728355e-06)
(1320.97875442 2511.00295955 6.16341572449e-06)
(1272.30997527 2484.59258262 8.16299181389e-06)