/*--------------------------------*- C++ -*----------------------------------*\
| =========                 |                                                 |
| \\      /  F ield         | foam-extend: Open Source CFD                    |
|  \\    /   O peration     | Version:     4.1                                |
|   \\  /    A nd           | Web:         http://www.foam-extend.org         |
|    \\/     M anipulation  |                                                 |
\*---------------------------------------------------------------------------*/
FoamFile
{
    version     2.0;
    format      ascii;
    class       volScalarField;
    location    "0.001";
    object      eMoins;
}
// * * * * * * * * * * * * * * * * * * * * * * * * * * * * * * * * * * * * * //

dimensions      [0 0 0 0 0 0 0];

internalField   nonuniform List<scalar> 
8400
(
9.91207428661e-163
9.91207428667e-163
9.91207428672e-163
9.91207428678e-163
9.91207428683e-163
9.91207428688e-163
9.91207428693e-163
9.91207428698e-163
9.91207428703e-163
9.91207428708e-163
9.91207428713e-163
9.91207428717e-163
9.91207428722e-163
9.91207428726e-163
9.91207428731e-163
9.91207428743e-163
9.91207429169e-163
9.91207453137e-163
9.91208812789e-163
9.91282807728e-163
9.95349992945e-163
1.04771385374e-162
2.19909025631e-20
3.49170989738e-09
2.38737325445e-06
1.36650104179e-05
2.0961322414e-05
2.44161742618e-05
2.5850326758e-05
2.63892320894e-05
2.65701867414e-05
2.66295191558e-05
2.66568774114e-05
2.66751132132e-05
2.66901964054e-05
2.67037409519e-05
2.67163187824e-05
2.67282603657e-05
2.67397421057e-05
2.67509206124e-05
2.67619443342e-05
2.677293639e-05
2.67840156614e-05
2.67952902135e-05
2.68068092081e-05
2.68186840166e-05
2.68309805959e-05
2.68437579161e-05
2.68571295932e-05
2.68681170784e-05
2.68826042526e-05
2.68974804195e-05
2.69128425438e-05
2.69286458872e-05
2.69448151405e-05
2.69612338247e-05
2.69777676987e-05
2.69942736982e-05
2.70105837351e-05
2.70265057239e-05
2.70418756242e-05
2.70564758844e-05
2.70701098464e-05
2.70825806501e-05
2.70936992617e-05
2.71032929079e-05
2.71111975156e-05
2.7117315984e-05
2.71216083239e-05
2.71336262587e-05
9.91207426907e-163
9.9120742691e-163
9.91207426912e-163
9.91207426914e-163
9.91207426916e-163
9.91207426918e-163
9.9120742692e-163
9.91207426922e-163
9.91207426924e-163
9.91207426926e-163
9.91207426928e-163
9.9120742693e-163
9.91207426932e-163
9.91207426933e-163
9.91207426936e-163
9.91207426971e-163
9.9120742886e-163
9.9120753668e-163
9.91213536942e-163
9.9154727542e-163
1.00157652216e-162
3.20324101329e-63
2.90463891569e-13
1.2471910453e-08
6.96125405284e-06
1.71800101013e-05
2.28274092971e-05
2.53160668029e-05
2.63014663869e-05
2.66423972916e-05
2.67431508739e-05
2.67789179671e-05
2.67956993768e-05
2.68090341524e-05
2.6821638184e-05
2.6834051444e-05
2.68493811645e-05
2.68618559449e-05
2.68744715879e-05
2.68872080604e-05
2.69000882367e-05
2.69131602976e-05
2.69264105901e-05
2.69399635079e-05
2.69538503314e-05
2.69681016202e-05
2.6982750891e-05
2.69978350935e-05
2.7013384576e-05
2.70293977561e-05
2.70458491236e-05
2.70627018693e-05
2.70799104805e-05
2.70973767959e-05
2.71150196552e-05
2.71327314101e-05
2.71503376986e-05
2.71677328329e-05
2.71847172485e-05
2.72010929733e-05
2.72167548438e-05
2.72315353484e-05
2.72452672789e-05
2.7257739469e-05
2.72687546338e-05
2.72781630553e-05
2.72858518307e-05
2.72917848873e-05
2.72959344101e-05
2.73058596267e-05
9.91207426024e-163
9.91207426026e-163
9.91207426027e-163
9.91207426028e-163
9.91207426029e-163
9.91207426031e-163
9.91207426032e-163
9.91207426033e-163
9.91207426034e-163
9.91207426036e-163
9.91207426037e-163
9.91207426038e-163
9.91207426039e-163
9.9120742604e-163
9.91207426045e-163
9.91207426238e-163
9.91207437241e-163
9.91208066379e-163
9.91242657007e-163
9.93179285736e-163
1.02383380875e-162
2.16644675021e-39
1.03590958938e-09
4.98905748625e-07
1.18448637533e-05
2.01641329804e-05
2.42315106773e-05
2.59366896911e-05
2.65670995576e-05
2.67678153864e-05
2.6823499754e-05
2.684145101e-05
2.68519197015e-05
2.68610120589e-05
2.687298831e-05
2.68823051111e-05
2.68920133196e-05
2.69020832566e-05
2.69125151552e-05
2.6923263729e-05
2.69344132865e-05
2.69459916211e-05
2.69580376836e-05
2.69705728338e-05
2.69836015355e-05
2.6997131126e-05
2.70111892191e-05
2.70257433841e-05
2.70437477132e-05
2.70593957125e-05
2.70755943435e-05
2.70921935837e-05
2.71091106244e-05
2.71262476199e-05
2.71434817746e-05
2.71607819789e-05
2.71780131452e-05
2.71949472114e-05
2.72113299845e-05
2.72270461942e-05
2.72420494081e-05
2.7256271135e-05
2.72694707933e-05
2.72813400946e-05
2.72915722232e-05
2.73003569358e-05
2.73049679121e-05
2.73134501548e-05
2.73173880457e-05
2.73260707747e-05
9.91207425461e-163
9.91207425462e-163
9.91207425463e-163
9.91207425464e-163
9.91207425465e-163
9.91207425466e-163
9.91207425467e-163
9.91207425468e-163
9.91207425469e-163
9.91207425469e-163
9.9120742547e-163
9.91207425471e-163
9.91207425472e-163
9.91207425473e-163
9.91207425486e-163
9.91207426184e-163
9.91207465845e-163
9.91209716334e-163
9.91332325237e-163
9.97990379951e-163
1.07661700968e-162
2.70266378724e-15
6.47671246083e-09
4.56491663004e-06
1.55727937139e-05
2.20838126625e-05
2.50534533014e-05
2.62402793184e-05
2.66572942759e-05
2.67800324635e-05
2.6816998731e-05
2.68314472951e-05
2.6841776714e-05
2.6851315462e-05
2.68607255229e-05
2.68731675325e-05
2.68828931566e-05
2.68929535374e-05
2.69033358866e-05
2.69140565225e-05
2.69251297032e-05
2.69366451105e-05
2.69486466752e-05
2.69611698387e-05
2.69742343433e-05
2.69878458365e-05
2.70020128958e-05
2.70167417428e-05
2.70320259426e-05
2.70478304039e-05
2.70641187791e-05
2.70807963574e-05
2.70977661614e-05
2.71149372436e-05
2.71321965895e-05
2.71493884076e-05
2.71664277725e-05
2.71831413453e-05
2.71993490111e-05
2.72149260752e-05
2.72297038282e-05
2.72435454829e-05
2.72563045887e-05
2.72678170703e-05
2.7277928248e-05
2.72864793946e-05
2.72934695739e-05
2.72988524369e-05
2.73025980955e-05
2.73101718792e-05
9.91207425065e-163
9.91207425066e-163
9.91207425066e-163
9.91207425067e-163
9.91207425068e-163
9.91207425068e-163
9.91207425069e-163
9.9120742507e-163
9.91207425071e-163
9.91207425071e-163
9.91207425072e-163
9.91207425073e-163
9.91207425073e-163
9.91207425075e-163
9.9120742513e-163
9.91207428247e-163
9.91207606789e-163
9.91217512211e-163
9.9177241553e-163
1.00475910921e-162
6.39212616238e-63
1.75193924298e-12
2.03972300704e-08
8.48677202649e-06
1.8162279311e-05
2.32818601564e-05
2.54983642936e-05
2.63512431404e-05
2.6637124311e-05
2.67202195565e-05
2.67514575381e-05
2.67676502143e-05
2.67810743047e-05
2.67936917144e-05
2.68059491174e-05
2.68209739394e-05
2.68330846869e-05
2.68453466588e-05
2.68577655489e-05
2.68703877216e-05
2.68832917846e-05
2.68965401295e-05
2.69101865906e-05
2.69242026419e-05
2.69386888075e-05
2.6953662203e-05
2.69691257696e-05
2.69850779265e-05
2.70015049874e-05
2.70183677559e-05
2.70356016971e-05
2.7053136274e-05
2.70709459358e-05
2.70889194454e-05
2.7106906828e-05
2.71247338179e-05
2.71422192074e-05
2.71592678386e-05
2.71758131692e-05
2.71916738087e-05
2.7206645397e-05
2.72205876927e-05
2.72333591797e-05
2.72448652854e-05
2.72549999459e-05
2.72636381481e-05
2.72706789577e-05
2.72760638141e-05
2.72797764025e-05
2.72868345256e-05
9.91207424769e-163
9.9120742477e-163
9.91207424771e-163
9.91207424771e-163
9.91207424772e-163
9.91207424772e-163
9.91207424773e-163
9.91207424773e-163
9.91207424774e-163
9.91207424775e-163
9.91207424775e-163
9.91207424776e-163
9.91207424776e-163
9.9120742478e-163
9.91207424974e-163
9.91207436071e-163
9.912080712e-163
9.91243054842e-163
9.93201902658e-163
1.02418931415e-162
2.21402072122e-39
1.05428606569e-09
4.92675971972e-07
1.17547698148e-05
2.00000410458e-05
2.40370922639e-05
2.57208087334e-05
2.63493856559e-05
2.65536681501e-05
2.66172939904e-05
2.66446090659e-05
2.666425459e-05
2.66819512582e-05
2.66989112355e-05
2.67154628795e-05
2.67317081593e-05
2.67477588983e-05
2.67636457836e-05
2.67823521419e-05
2.67981696378e-05
2.68141764989e-05
2.68303804111e-05
2.68468521949e-05
2.68636534003e-05
2.68807970958e-05
2.68983027602e-05
2.69161693733e-05
2.69343234437e-05
2.69528226805e-05
2.69716193768e-05
2.69906544509e-05
2.70099078814e-05
2.70293321207e-05
2.70487987439e-05
2.70680908704e-05
2.70870452244e-05
2.71055675906e-05
2.7123683926e-05
2.71412760433e-05
2.71579815787e-05
2.71735623648e-05
2.71879322838e-05
2.72011624554e-05
2.72102498918e-05
2.72208394244e-05
2.72297912064e-05
2.72370336925e-05
2.72425205964e-05
2.72461939148e-05
2.72556624611e-05
9.91207424541e-163
9.91207424541e-163
9.91207424542e-163
9.91207424542e-163
9.91207424543e-163
9.91207424543e-163
9.91207424544e-163
9.91207424544e-163
9.91207424545e-163
9.91207424545e-163
9.91207424546e-163
9.91207424546e-163
9.91207424547e-163
9.91207424556e-163
9.91207425082e-163
9.91207455042e-163
9.91209159465e-163
9.91302275546e-163
9.9640837426e-163
1.05919612384e-162
7.80396154627e-18
4.57791304872e-09
3.19288178714e-06
1.43435664152e-05
2.12668411295e-05
2.44868269977e-05
2.57918597452e-05
2.62644773063e-05
2.64186215274e-05
2.64738916059e-05
2.65038695686e-05
2.65285503316e-05
2.6551603246e-05
2.65739266101e-05
2.65956617451e-05
2.66169330511e-05
2.66377613904e-05
2.66582685625e-05
2.66785753823e-05
2.66987648275e-05
2.67189364918e-05
2.67391345974e-05
2.67594255634e-05
2.67798117334e-05
2.68003306511e-05
2.68210671181e-05
2.68420279313e-05
2.68632559754e-05
2.68846889122e-05
2.69062776448e-05
2.69279285044e-05
2.69495369501e-05
2.69711350689e-05
2.69926200018e-05
2.70138331645e-05
2.70346019226e-05
2.70547832112e-05
2.70743078639e-05
2.70931215245e-05
2.71110195214e-05
2.71277941967e-05
2.7143273548e-05
2.71573307642e-05
2.71699045989e-05
2.71809262193e-05
2.7190289115e-05
2.7197897842e-05
2.72036998554e-05
2.72076824508e-05
2.72143291219e-05
9.91207424359e-163
9.91207424359e-163
9.9120742436e-163
9.9120742436e-163
9.91207424361e-163
9.91207424361e-163
9.91207424361e-163
9.91207424362e-163
9.91207424362e-163
9.91207424363e-163
9.91207424363e-163
9.91207424363e-163
9.91207424364e-163
9.91207424391e-163
9.91207425881e-163
9.91207511185e-163
9.91212296811e-163
9.91478284409e-163
1.0006890718e-162
2.12360188402e-63
1.16519260765e-13
1.03430332854e-08
6.16001992346e-06
1.64186444052e-05
2.21691122427e-05
2.47400371555e-05
2.57635582362e-05
2.6124030875e-05
2.62457821352e-05
2.62992480722e-05
2.6334236673e-05
2.63653057174e-05
2.6394809376e-05
2.64232453287e-05
2.64508630264e-05
2.6477813784e-05
2.65041611457e-05
2.65300310783e-05
2.65555342809e-05
2.65808137911e-05
2.66058709399e-05
2.66307573943e-05
2.66554734264e-05
2.66801613532e-05
2.67048737571e-05
2.67296758787e-05
2.67545418493e-05
2.67794487578e-05
2.68042272457e-05
2.68289944124e-05
2.68536814966e-05
2.68783154851e-05
2.69027188315e-05
2.69268232487e-05
2.69504248152e-05
2.69734620767e-05
2.69957709336e-05
2.70171778466e-05
2.703758635e-05
2.70569029959e-05
2.70749981786e-05
2.70917975757e-05
2.71041768906e-05
2.71178028553e-05
2.71296285733e-05
2.71396533504e-05
2.71478015611e-05
2.71540109798e-05
2.7158269448e-05
2.71648867838e-05
9.91207424211e-163
9.91207424212e-163
9.91207424212e-163
9.91207424212e-163
9.91207424213e-163
9.91207424213e-163
9.91207424213e-163
9.91207424214e-163
9.91207424214e-163
9.91207424214e-163
9.91207424215e-163
9.91207424215e-163
9.91207424217e-163
9.91207424292e-163
9.91207428562e-163
9.91207671948e-163
9.9122108557e-163
9.91968817379e-163
1.00755666348e-162
8.79545596042e-63
4.94143419684e-12
2.81902349925e-08
8.92928183597e-06
1.80425431958e-05
2.28044764129e-05
2.48580966266e-05
2.56612035572e-05
2.5942631245e-05
2.60436339015e-05
2.60958543777e-05
2.61400344703e-05
2.61780095454e-05
2.6214540167e-05
2.62499055724e-05
2.62841386145e-05
2.63174656516e-05
2.63500648604e-05
2.63820157444e-05
2.64133498504e-05
2.64441001678e-05
2.64744494792e-05
2.65044312019e-05
2.65341374855e-05
2.65636545038e-05
2.6593088973e-05
2.66223883605e-05
2.66514968233e-05
2.66804973192e-05
2.67064332633e-05
2.67351608666e-05
2.67635837947e-05
2.67916358439e-05
2.68190854344e-05
2.68460411796e-05
2.6872398535e-05
2.68980241153e-05
2.69227584839e-05
2.69464526178e-05
2.6968992484e-05
2.6990224642e-05
2.70100392702e-05
2.70282503109e-05
2.70447283978e-05
2.70593859152e-05
2.70721355953e-05
2.70829221731e-05
2.7091689669e-05
2.70984025533e-05
2.71030278741e-05
2.71097427388e-05
9.91207424089e-163
9.9120742409e-163
9.9120742409e-163
9.9120742409e-163
9.91207424091e-163
9.91207424091e-163
9.91207424091e-163
9.91207424091e-163
9.91207424092e-163
9.91207424092e-163
9.91207424092e-163
9.91207424093e-163
9.91207424097e-163
9.91207424319e-163
9.9120743697e-163
9.91208157323e-163
9.91247629175e-163
9.93438624064e-163
1.0270375066e-162
2.75026151242e-39
1.22937357924e-09
5.15136052833e-07
1.1467955346e-05
1.9353611405e-05
2.32377313668e-05
2.48758664674e-05
2.55055540369e-05
2.5727218369e-05
2.58178547083e-05
2.58739630524e-05
2.59220756636e-05
2.59675030061e-05
2.6011463735e-05
2.60539865949e-05
2.6095221603e-05
2.61353840562e-05
2.61745690397e-05
2.62129541431e-05
2.62505857869e-05
2.62874213635e-05
2.63236161565e-05
2.6359341959e-05
2.63946429239e-05
2.64294784417e-05
2.64638940086e-05
2.64979797055e-05
2.65317322986e-05
2.65651526324e-05
2.65983214849e-05
2.66311024329e-05
2.66633537213e-05
2.6695018388e-05
2.67260636397e-05
2.67564734234e-05
2.67860657059e-05
2.68146606481e-05
2.68421965401e-05
2.68655397008e-05
2.68904169152e-05
2.69136343131e-05
2.6935236622e-05
2.69550920484e-05
2.69730451369e-05
2.69889957435e-05
2.70028584565e-05
2.70145734073e-05
2.70240892553e-05
2.70313571545e-05
2.70363756533e-05
2.70431732132e-05
9.91207423987e-163
9.91207423987e-163
9.91207423988e-163
9.91207423988e-163
9.91207423988e-163
9.91207423988e-163
9.91207423989e-163
9.91207423989e-163
9.91207423989e-163
9.91207423989e-163
9.9120742399e-163
9.9120742399e-163
9.91207424e-163
9.91207424566e-163
9.91207456493e-163
9.91209255645e-163
9.91306730453e-163
9.96589825112e-163
1.06127037934e-162
8.03959767561e-18
4.47930351859e-09
2.88624126063e-06
1.36521427006e-05
2.03726089422e-05
2.35103622179e-05
2.48092676003e-05
2.53017373598e-05
2.5484702198e-05
2.55693208609e-05
2.56315780906e-05
2.56877308623e-05
2.57412674781e-05
2.57929644333e-05
2.58432331285e-05
2.58921091062e-05
2.59395131531e-05
2.59858218483e-05
2.60311330499e-05
2.60752720799e-05
2.61184825182e-05
2.6160883748e-05
2.62025870776e-05
2.62437326408e-05
2.62842198891e-05
2.6324014272e-05
2.63633875392e-05
2.63991695926e-05
2.6437473529e-05
2.64752763922e-05
2.65124519083e-05
2.65488516595e-05
2.65845061198e-05
2.66194241544e-05
2.66534162842e-05
2.66862334267e-05
2.6717873048e-05
2.67482118451e-05
2.67771039867e-05
2.68043949252e-05
2.68299982034e-05
2.68537641191e-05
2.68755503913e-05
2.68952944978e-05
2.69095785715e-05
2.69247586216e-05
2.69374723003e-05
2.69477590702e-05
2.69556152361e-05
2.69610598857e-05
2.69680128583e-05
9.912074239e-163
9.91207423901e-163
9.91207423901e-163
9.91207423901e-163
9.91207423901e-163
9.91207423902e-163
9.91207423902e-163
9.91207423902e-163
9.91207423902e-163
9.91207423903e-163
9.91207423903e-163
9.91207423904e-163
9.91207423933e-163
9.9120742557e-163
9.91207518391e-163
9.91212672215e-163
9.91496110491e-163
1.00109162314e-162
2.24479050912e-63
1.2082266644e-13
1.00256219986e-08
5.69866820938e-06
1.55696290907e-05
2.11290319543e-05
2.36439447733e-05
2.46716311221e-05
2.50571769699e-05
2.52122207357e-05
2.52985494166e-05
2.53688075956e-05
2.54341136712e-05
2.5496944088e-05
2.55574929319e-05
2.56161591664e-05
2.56731370213e-05
2.5728330977e-05
2.57820360639e-05
2.58344476215e-05
2.58858458696e-05
2.59330081723e-05
2.59820425691e-05
2.60300656952e-05
2.60772717019e-05
2.61237311884e-05
2.61692562722e-05
2.6214037967e-05
2.62581931514e-05
2.63015435595e-05
2.63440446056e-05
2.63856924475e-05
2.64264947033e-05
2.64634645564e-05
2.65023443977e-05
2.65400255604e-05
2.65764644464e-05
2.66114707942e-05
2.66448895367e-05
2.66766205782e-05
2.67064889547e-05
2.6734409728e-05
2.67602895125e-05
2.67840228767e-05
2.68054287911e-05
2.68244003598e-05
2.68408017472e-05
2.68545953297e-05
2.68657599672e-05
2.68742713555e-05
2.68801369102e-05
2.68871376166e-05
9.91207423826e-163
9.91207423826e-163
9.91207423826e-163
9.91207423827e-163
9.91207423827e-163
9.91207423827e-163
9.91207423827e-163
9.91207423828e-163
9.91207423828e-163
9.91207423828e-163
9.91207423828e-163
9.9120742383e-163
9.91207423919e-163
9.91207428937e-163
9.91207711427e-163
9.91223096138e-163
9.92069427673e-163
1.00906149756e-162
9.66283681812e-63
6.64751204388e-12
2.82050720993e-08
8.4763408847e-06
1.71617465914e-05
2.16846275735e-05
2.36697993648e-05
2.4472958114e-05
2.47804163338e-05
2.49177169157e-05
2.50089301782e-05
2.50885275082e-05
2.51637409787e-05
2.52360053796e-05
2.53059623935e-05
2.53705814048e-05
2.54361583231e-05
2.54999374799e-05
2.55618268575e-05
2.56219980398e-05
2.5680663689e-05
2.57380474547e-05
2.57939917877e-05
2.58487129406e-05
2.59024226368e-05
2.5954944386e-05
2.600348936e-05
2.60540334355e-05
2.61035701856e-05
2.61521163388e-05
2.61997623185e-05
2.62462744125e-05
2.62916100579e-05
2.63357811127e-05
2.63786717247e-05
2.64203783321e-05
2.64573525958e-05
2.64957722766e-05
2.65323664318e-05
2.65671417928e-05
2.65998825073e-05
2.66303576649e-05
2.66584488712e-05
2.66841034024e-05
2.67072056027e-05
2.67276612891e-05
2.67453921406e-05
2.67603243693e-05
2.67724051468e-05
2.67816297306e-05
2.67879708515e-05
2.67950777492e-05
9.91207423762e-163
9.91207423762e-163
9.91207423762e-163
9.91207423762e-163
9.91207423763e-163
9.91207423763e-163
9.91207423763e-163
9.91207423763e-163
9.91207423763e-163
9.91207423764e-163
9.91207423764e-163
9.91207423769e-163
9.9120742407e-163
9.91207440939e-163
9.91208387166e-163
9.91259503034e-163
9.94044593194e-163
1.03404871695e-162
7.76246075468e-30
1.74325612961e-09
6.52803547331e-07
1.11036287311e-05
1.84535352364e-05
2.20646302211e-05
2.36106666788e-05
2.4229170863e-05
2.44777649567e-05
2.46075157754e-05
2.47050056934e-05
2.47942478713e-05
2.48764922068e-05
2.49586425191e-05
2.50379300264e-05
2.51148653549e-05
2.51893493318e-05
2.52616108679e-05
2.53318232826e-05
2.54000829058e-05
2.54635701479e-05
2.55283303075e-05
2.55916946699e-05
2.56534836602e-05
2.5713857e-05
2.57730522083e-05
2.5830676972e-05
2.58871228334e-05
2.59394153062e-05
2.59934588644e-05
2.60461554228e-05
2.60975981959e-05
2.61478305257e-05
2.6196498478e-05
2.62436077438e-05
2.62891037218e-05
2.63328835598e-05
2.63749572692e-05
2.64117414957e-05
2.64495047941e-05
2.64849245446e-05
2.65179226964e-05
2.65483540616e-05
2.65761468498e-05
2.66011773642e-05
2.66233280979e-05
2.66424890958e-05
2.66585717255e-05
2.66715760779e-05
2.66814814378e-05
2.66882977247e-05
2.66955011256e-05
9.91207423706e-163
9.91207423706e-163
9.91207423706e-163
9.91207423706e-163
9.91207423707e-163
9.91207423707e-163
9.91207423707e-163
9.91207423707e-163
9.91207423707e-163
9.91207423707e-163
9.91207423708e-163
9.91207423723e-163
9.91207424554e-163
9.91207470604e-163
9.91210014137e-163
9.91345287444e-163
9.98453057407e-163
1.08141010016e-162
1.96563621746e-15
5.80838450421e-09
3.4261266454e-06
1.34307506195e-05
1.94492509441e-05
2.22760596598e-05
2.34642886386e-05
2.39427781904e-05
2.41515790195e-05
2.4278296427e-05
2.43847173719e-05
2.44843711684e-05
2.4580020607e-05
2.46721361846e-05
2.47615187916e-05
2.48477976494e-05
2.49286331987e-05
2.50096778541e-05
2.50883407184e-05
2.51650464327e-05
2.52393274797e-05
2.53117343172e-05
2.53793047125e-05
2.54483549619e-05
2.55156405939e-05
2.55812268383e-05
2.56453086784e-05
2.5708125792e-05
2.57692874231e-05
2.58289946927e-05
2.58839957778e-05
2.59408054079e-05
2.59956773659e-05
2.60488661687e-05
2.61003011953e-05
2.61500411749e-05
2.6197746178e-05
2.62432025347e-05
2.62832152633e-05
2.63241093675e-05
2.63623717236e-05
2.63979512376e-05
2.64307608355e-05
2.64607038548e-05
2.64876099451e-05
2.65113443141e-05
2.65318414454e-05
2.65490877375e-05
2.65630444896e-05
2.65736877012e-05
2.65810209496e-05
2.65883514071e-05
9.91207423657e-163
9.91207423657e-163
9.91207423657e-163
9.91207423657e-163
9.91207423657e-163
9.91207423657e-163
9.91207423658e-163
9.91207423658e-163
9.91207423658e-163
9.91207423658e-163
9.91207423659e-163
9.9120742372e-163
9.91207427108e-163
9.91207615593e-163
9.91217812295e-163
9.917707321e-163
1.00516821903e-162
5.65806564626e-63
1.03298321586e-12
1.49494806408e-08
6.54667400509e-06
1.53759503572e-05
2.01725850526e-05
2.2335314923e-05
2.32467092853e-05
2.36198647392e-05
2.38049127421e-05
2.39366003082e-05
2.40537897363e-05
2.41652737592e-05
2.42722573205e-05
2.43725219675e-05
2.44720278746e-05
2.45683137468e-05
2.46612495869e-05
2.47515585444e-05
2.48360002388e-05
2.4920980142e-05
2.5003384485e-05
2.50837560977e-05
2.5161851386e-05
2.52381604995e-05
2.53091414789e-05
2.5381454753e-05
2.5452059095e-05
2.552098053e-05
2.55880192935e-05
2.56533156787e-05
2.57139227694e-05
2.57758103655e-05
2.58356964911e-05
2.58936604193e-05
2.59495723137e-05
2.60034525012e-05
2.605517019e-05
2.61042985474e-05
2.61474312403e-05
2.61914958542e-05
2.62326068155e-05
2.62707906105e-05
2.63059712685e-05
2.63379900243e-05
2.63667081815e-05
2.63921026431e-05
2.64140588524e-05
2.64325453925e-05
2.64475197069e-05
2.64589102625e-05
2.64667661267e-05
2.64742212698e-05
9.91207423613e-163
9.91207423613e-163
9.91207423614e-163
9.91207423614e-163
9.91207423614e-163
9.91207423614e-163
9.91207423614e-163
9.91207423614e-163
9.91207423614e-163
9.91207423615e-163
9.91207423619e-163
9.91207423859e-163
9.91207437117e-163
9.91208168736e-163
9.91247155392e-163
9.93342204469e-163
1.0262093025e-162
2.00584366399e-39
7.86018302718e-10
1.35119409599e-07
9.60679987869e-06
1.69473268519e-05
2.06544062712e-05
2.2285878024e-05
2.29723727918e-05
2.3272866097e-05
2.34448808235e-05
2.35844053867e-05
2.37132228078e-05
2.3833352865e-05
2.39520179871e-05
2.40660162276e-05
2.4176470728e-05
2.42798380967e-05
2.43829334888e-05
2.44826429447e-05
2.45790501955e-05
2.46726690349e-05
2.47603922553e-05
2.48485365516e-05
2.49341484824e-05
2.50176733435e-05
2.50989907982e-05
2.51748083152e-05
2.52520270014e-05
2.5327098652e-05
2.54000607163e-05
2.54711340138e-05
2.55403494144e-05
2.56037544957e-05
2.56688371239e-05
2.57314178229e-05
2.57917303938e-05
2.5849748415e-05
2.59054307312e-05
2.59583578017e-05
2.60048318122e-05
2.60518698087e-05
2.60958645405e-05
2.61368271012e-05
2.61745581429e-05
2.62088145006e-05
2.62394231867e-05
2.62662840837e-05
2.62895607194e-05
2.6309236979e-05
2.6325211133e-05
2.63373541148e-05
2.63457140071e-05
2.63533049416e-05
9.91207423575e-163
9.91207423575e-163
9.91207423575e-163
9.91207423575e-163
9.91207423575e-163
9.91207423575e-163
9.91207423575e-163
9.91207423576e-163
9.91207423576e-163
9.91207423576e-163
9.91207423592e-163
9.91207424455e-163
9.91207471595e-163
9.91210038605e-163
9.91344851666e-163
9.98326563802e-163
1.07975299982e-162
4.12311807937e-16
5.16311914432e-09
2.70512881393e-06
1.2278335914e-05
1.81344924728e-05
2.09245745223e-05
2.21364020739e-05
2.26535120227e-05
2.29062930472e-05
2.30765550932e-05
2.32226888197e-05
2.33634268928e-05
2.3498416513e-05
2.36280688473e-05
2.37504587885e-05
2.38711174343e-05
2.3987967408e-05
2.40975923823e-05
2.42066665937e-05
2.43123574266e-05
2.44146444094e-05
2.45107782967e-05
2.46071592718e-05
2.47006871854e-05
2.47916242662e-05
2.48798474689e-05
2.49623912147e-05
2.50461150135e-05
2.51273811513e-05
2.52062427597e-05
2.52829137155e-05
2.53540732386e-05
2.5426229383e-05
2.54959031564e-05
2.55631224868e-05
2.56279907409e-05
2.56899901571e-05
2.57493384472e-05
2.580226834e-05
2.58556606436e-05
2.59058765001e-05
2.59528380091e-05
2.59963186584e-05
2.6036324422e-05
2.60726387317e-05
2.61051170979e-05
2.61336935205e-05
2.61585067205e-05
2.61758753489e-05
2.61929254174e-05
2.62058942383e-05
2.62148560574e-05
2.6222578822e-05
9.9120742354e-163
9.9120742354e-163
9.9120742354e-163
9.9120742354e-163
9.91207423541e-163
9.91207423541e-163
9.91207423541e-163
9.91207423541e-163
9.91207423541e-163
9.91207423543e-163
9.91207423622e-163
9.91207427936e-163
9.91207664019e-163
9.9122021818e-163
9.91889189245e-163
1.00693757679e-162
6.73295625932e-63
1.5470895745e-12
1.55273709237e-08
6.21038637658e-06
1.44652396189e-05
1.89519987568e-05
2.100212959e-05
2.18972541805e-05
2.22974916348e-05
2.25206980821e-05
2.26967986634e-05
2.28579549719e-05
2.30111299224e-05
2.31554460177e-05
2.32970706451e-05
2.34332100691e-05
2.35616772941e-05
2.36884142688e-05
2.38110750138e-05
2.3926263537e-05
2.40409353435e-05
2.41518696387e-05
2.42595530772e-05
2.43604807679e-05
2.44617311637e-05
2.45601776838e-05
2.46556537237e-05
2.47451600008e-05
2.48352868391e-05
2.49226696198e-05
2.50076323638e-05
2.50899939289e-05
2.5166180559e-05
2.52436187374e-05
2.5318117907e-05
2.53898531159e-05
2.54587826838e-05
2.55248881271e-05
2.55844459805e-05
2.56443945874e-05
2.57009527193e-05
2.57541763994e-05
2.58039878335e-05
2.5849974241e-05
2.58921777198e-05
2.59305649848e-05
2.59611442627e-05
2.59915093359e-05
2.60176658017e-05
2.60396968896e-05
2.60575560841e-05
2.60712220233e-05
2.60806828864e-05
2.6088490993e-05
9.91207423509e-163
9.91207423509e-163
9.91207423509e-163
9.91207423509e-163
9.91207423509e-163
9.9120742351e-163
9.9120742351e-163
9.9120742351e-163
9.9120742351e-163
9.91207423518e-163
9.91207423912e-163
9.9120744538e-163
9.91208611112e-163
9.91269732991e-163
9.94476204246e-163
1.03920797436e-162
1.17879130354e-29
1.71146987659e-09
3.23259267173e-07
9.53405965444e-06
1.61473873843e-05
1.94570345063e-05
2.09387346939e-05
2.15961387854e-05
2.19173131914e-05
2.21311381589e-05
2.23160013833e-05
2.24863976397e-05
2.26524837762e-05
2.28118420523e-05
2.29622244899e-05
2.31101111168e-05
2.32492720465e-05
2.33863170817e-05
2.35185282451e-05
2.36429716832e-05
2.37665997836e-05
2.38859344846e-05
2.40018660074e-05
2.41106667908e-05
2.42194402857e-05
2.43248133887e-05
2.44274613311e-05
2.45233244079e-05
2.46200505855e-05
2.47136722547e-05
2.48045147004e-05
2.48889069231e-05
2.49741326131e-05
2.50565783752e-05
2.51357735612e-05
2.52120544905e-05
2.52816360634e-05
2.53516943364e-05
2.54183205458e-05
2.54815689307e-05
2.55413087523e-05
2.55974138285e-05
2.56498133909e-05
2.56944693442e-05
2.57389525574e-05
2.57792979979e-05
2.58155502124e-05
2.58475210686e-05
2.58750206058e-05
2.5898163207e-05
2.5916917519e-05
2.59312771731e-05
2.59412700034e-05
2.59492455746e-05
9.91207423481e-163
9.91207423481e-163
9.91207423481e-163
9.91207423481e-163
9.91207423481e-163
9.91207423482e-163
9.91207423482e-163
9.91207423482e-163
9.91207423483e-163
9.9120742352e-163
9.91207425525e-163
9.91207534256e-163
9.91213325839e-163
9.91517459978e-163
1.00186247042e-162
1.96603574041e-63
6.53973002823e-14
7.95206315101e-09
3.69372877066e-06
1.23129910316e-05
1.73221021556e-05
1.96964363845e-05
2.07560345089e-05
2.12483478174e-05
2.15252230163e-05
2.17396752404e-05
2.19326449745e-05
2.21184860502e-05
2.22938803681e-05
2.24651619424e-05
2.2626893168e-05
2.27854472106e-05
2.29381866083e-05
2.30821778446e-05
2.32243561526e-05
2.3361386127e-05
2.34907604232e-05
2.36185488517e-05
2.37423663229e-05
2.38587324201e-05
2.3975131879e-05
2.40876723954e-05
2.4193196174e-05
2.42994009035e-05
2.44019861831e-05
2.45015244184e-05
2.45943802621e-05
2.4687712514e-05
2.47779183257e-05
2.48650913593e-05
2.49492500668e-05
2.5026095387e-05
2.51035307888e-05
2.5177422701e-05
2.52477170527e-05
2.53142930514e-05
2.53773557161e-05
2.54322909689e-05
2.54873083396e-05
2.55380923648e-05
2.55846715392e-05
2.56269513691e-05
2.56647369113e-05
2.56980563646e-05
2.57268992239e-05
2.57512722962e-05
2.57668883267e-05
2.57820412096e-05
2.57925679888e-05
2.58007096617e-05
9.91207423455e-163
9.91207423456e-163
9.91207423456e-163
9.91207423456e-163
9.91207423456e-163
9.91207423456e-163
9.91207423456e-163
9.91207423456e-163
9.91207423461e-163
9.91207423692e-163
9.91207436186e-163
9.91208108835e-163
9.91243140695e-163
9.93071113059e-163
1.02272981242e-162
9.03715900394e-40
1.94606556921e-10
4.00572919112e-08
7.48558230561e-06
1.44330602197e-05
1.80573934547e-05
1.97202610794e-05
2.04814932597e-05
2.08661325531e-05
2.11243193783e-05
2.13463661642e-05
2.15513277372e-05
2.17499857514e-05
2.19374941862e-05
2.21203259863e-05
2.22931810708e-05
2.24622287365e-05
2.26252315607e-05
2.27786725655e-05
2.29302323733e-05
2.30728010145e-05
2.3213937262e-05
2.33503279375e-05
2.3478721701e-05
2.36063326447e-05
2.37297797852e-05
2.38455394973e-05
2.39614733778e-05
2.40735873162e-05
2.41822015141e-05
2.42837615714e-05
2.43857304164e-05
2.44841575528e-05
2.45792891322e-05
2.46671194642e-05
2.47555107425e-05
2.48402878489e-05
2.49214947402e-05
2.49992419325e-05
2.50689373128e-05
2.51388865468e-05
2.52047217726e-05
2.52664632839e-05
2.53239472974e-05
2.53770404276e-05
2.54257344074e-05
2.54656854156e-05
2.55052217926e-05
2.55399863655e-05
2.55700621137e-05
2.55954137968e-05
2.56159595567e-05
2.56317345733e-05
2.56427972221e-05
2.5651059703e-05
9.91207423432e-163
9.91207423432e-163
9.91207423433e-163
9.91207423433e-163
9.91207423433e-163
9.91207423433e-163
9.91207423433e-163
9.91207423434e-163
9.91207423457e-163
9.91207424715e-163
9.91207491553e-163
9.91211043954e-163
9.91394721014e-163
1.00000822948e-162
3.30011639238e-64
3.7669606696e-15
5.52958152494e-09
2.24991370465e-06
1.07570041557e-05
1.59276729701e-05
1.84408275817e-05
1.9595410114e-05
2.01484668812e-05
2.0473285301e-05
2.07281202184e-05
2.09577213525e-05
2.11785920489e-05
2.13866975056e-05
2.15888368291e-05
2.17799049301e-05
2.19631573539e-05
2.2142413504e-05
2.23152222396e-05
2.24779548723e-05
2.26384021499e-05
2.27895554137e-05
2.2938681509e-05
2.30828913622e-05
2.3218662667e-05
2.33533898292e-05
2.34837943654e-05
2.36064188782e-05
2.37287740468e-05
2.38472810583e-05
2.39578363819e-05
2.40685524906e-05
2.41755476124e-05
2.42788807453e-05
2.43747984875e-05
2.44709924645e-05
2.456343927e-05
2.46521158106e-05
2.47328468015e-05
2.48138712764e-05
2.48910381315e-05
2.49638952193e-05
2.50324261881e-05
2.50967054541e-05
2.51520880808e-05
2.5207418535e-05
2.52579562074e-05
2.53037357573e-05
2.53447189045e-05
2.53808564724e-05
2.54121096072e-05
2.54384497283e-05