/*--------------------------------*- C++ -*----------------------------------*\
| =========                 |                                                 |
| \\      /  F ield         | foam-extend: Open Source CFD                    |
|  \\    /   O peration     | Version:     4.1                                |
|   \\  /    A nd           | Web:         http://www.foam-extend.org         |
|    \\/     M anipulation  |                                                 |
\*---------------------------------------------------------------------------*/
FoamFile
{
    version     2.0;
    format      ascii;
    class       volScalarField;
    location    "0.001";
    object      Mach;
}
// * * * * * * * * * * * * * * * * * * * * * * * * * * * * * * * * * * * * * //

dimensions      [0 0 0 0 0 0 0];

internalField   nonuniform List<scalar> 
8400
(
56.1971337605
56.1971337606
56.1971337606
56.1971337606
56.1971337607
56.1971337607
56.1971337607
56.1971337608
56.1971337608
56.1971337608
56.1971337609
56.1971337609
56.1971337609
56.197133761
56.197133761
56.197133761
56.1971337609
56.1971337518
56.1971332336
56.1971042822
56.1955241047
56.1333285653
22.7840824415
10.4186582149
4.73333844245
2.51588248747
1.34683364902
0.726648704449
0.423183996778
0.297964631853
0.255589148651
0.241508870005
0.234854458117
0.229799731418
0.224933838855
0.219957630728
0.214831999463
0.209575698184
0.204217526304
0.198788085201
0.193316990971
0.187831457989
0.182355503143
0.17691081402
0.171518091168
0.166198374703
0.160972634289
0.15585947553
0.150888034328
0.146050779709
0.141351787812
0.136847129751
0.132538300464
0.128436875224
0.124555342766
0.120906867376
0.117503665225
0.114355470012
0.111470228819
0.108854422842
0.106512193158
0.104443931148
0.10264579807
0.101111992049
0.0998351755601
0.0988054885339
0.0980098259104
0.0974322987806
0.0970558908173
0.0969530620965
56.197133769
56.197133769
56.197133769
56.1971337691
56.1971337691
56.1971337691
56.1971337691
56.1971337691
56.1971337691
56.1971337691
56.1971337691
56.1971337691
56.1971337691
56.1971337691
56.1971337691
56.1971337691
56.1971337684
56.1971337274
56.1971314084
56.1970024557
56.1910439239
50.0816627399
17.4660016303
8.22177360528
3.69128723747
1.96860147176
1.04412753885
0.564431590328
0.343509164535
0.26072828848
0.234133594871
0.224187545409
0.218388771151
0.213579237078
0.20906735797
0.204690334498
0.200435812186
0.196319333993
0.192299009893
0.188390826052
0.184601895918
0.180937311327
0.17740069056
0.173995688316
0.170728180527
0.167605474738
0.164633366074
0.16181449149
0.159150069914
0.156643846665
0.154300415437
0.152123436429
0.150114006838
0.148270703401
0.146590079377
0.14506728293
0.143696843455
0.142475158183
0.141400342479
0.140467418398
0.13966562924
0.138981563193
0.138403448749
0.137923258081
0.137534014456
0.137226918064
0.136990784415
0.136812311639
0.136681931743
0.136636537627
56.1971337743
56.1971337743
56.1971337743
56.1971337743
56.1971337743
56.1971337743
56.1971337743
56.1971337743
56.1971337743
56.1971337743
56.1971337743
56.1971337743
56.1971337743
56.1971337743
56.1971337743
56.1971337742
56.19713377
56.1971335307
56.1971200457
56.1963740123
56.1657756313
30.183227099
11.7299625072
5.44981819886
2.82987745506
1.50549812209
0.800980982574
0.453566122604
0.310665235708
0.263471223246
0.248259785051
0.241305792648
0.236377930955
0.232077752357
0.228119138714
0.224452513896
0.221014556629
0.217799075175
0.214796470581
0.211997388734
0.209392406155
0.206971502455
0.204724639865
0.20264420617
0.200725575749
0.198964079972
0.197351574578
0.195870241444
0.194518490951
0.193309650549
0.192214018312
0.191235287623
0.190367631768
0.189602584702
0.188929855089
0.188339010604
0.187823976694
0.187384284804
0.18701850953
0.18671731724
0.186465833007
0.186251938076
0.186071400434
0.185924782944
0.185809947807
0.18571729953
0.185638762376
0.18555358251
0.185467604803
0.185419013511
56.1971337778
56.1971337778
56.1971337778
56.1971337778
56.1971337778
56.1971337778
56.1971337778
56.1971337778
56.1971337778
56.1971337778
56.1971337778
56.1971337778
56.1971337778
56.1971337778
56.1971337778
56.1971337775
56.1971337624
56.1971329046
56.1970849677
56.1944786739
56.0942989813
19.366128699
9.3792987512
4.19914157589
2.23685405363
1.19487072206
0.656487461186
0.413770599822
0.326932319563
0.300089857349
0.290003146674
0.284002411634
0.279113262478
0.274713136104
0.270654768795
0.266900718958
0.263456030647
0.26026538142
0.257321413839
0.254610681992
0.252119148789
0.249832501523
0.247736627667
0.245818546419
0.244067053866
0.242472061718
0.241023393794
0.239710065167
0.23852215498
0.237449647434
0.236485848716
0.23562437732
0.234857394904
0.234176215699
0.233572493221
0.233038896413
0.232569345529
0.232158761032
0.231801837322
0.231491883721
0.23122212504
0.230986255772
0.230779597187
0.230598518365
0.230438846671
0.230295608368
0.230163964531
0.230042053132
0.229927555182
0.229846154296
56.1971337804
56.1971337804
56.1971337804
56.1971337804
56.1971337804
56.1971337804
56.1971337804
56.1971337804
56.1971337804
56.1971337804
56.1971337804
56.1971337804
56.1971337804
56.1971337804
56.1971337803
56.1971337792
56.1971337114
56.1971298758
56.1969164617
56.1875563471
45.0187076214
16.1654348464
7.52481445243
3.41282518931
1.83190548574
0.996627404816
0.588432340421
0.42464505552
0.371905983771
0.354625937092
0.346243978143
0.340077582414
0.334627925584
0.32959496874
0.324901525364
0.320520781017
0.316461463421
0.312669953808
0.309137374477
0.305853568848
0.302804372141
0.299975668449
0.297353036088
0.294922977302
0.292673329652
0.290593520585
0.288673437874
0.286902697378
0.28527111446
0.283770267895
0.282392714451
0.281130620088
0.279974554116
0.278916011483
0.277948957867
0.277069768121
0.276273914379
0.275553675915
0.274900542308
0.274308955686
0.27377642384
0.273300051621
0.272875763192
0.272498748431
0.272163423871
0.271867424172
0.271608517535
0.271384305267
0.271192315406
0.27106397135
56.1971337824
56.1971337824
56.1971337824
56.1971337824
56.1971337824
56.1971337824
56.1971337824
56.1971337824
56.1971337824
56.1971337824
56.1971337824
56.1971337824
56.1971337823
56.1971337823
56.1971337823
56.197133778
56.1971335372
56.1971199473
56.1963672151
56.1655766004
30.087990238
11.7195225463
5.45734142469
2.85182286615
1.54837601767
0.876645787756
0.573077640064
0.464227662981
0.430155944885
0.417005157372
0.408877434944
0.4020603648
0.395782301573
0.389879682741
0.384309499477
0.379053904112
0.374095741436
0.369416922839
0.364997803397
0.360862101413
0.356965026512
0.35329968707
0.349854148762
0.346617071863
0.343578596349
0.340729094667
0.338059417511
0.335560467145
0.333223646348
0.33104166477
0.329007158961
0.327110970924
0.325343739131
0.323699515004
0.322177142292
0.320774851733
0.319485414203
0.318296444155
0.317200426998
0.31619828081
0.315291599001
0.314476598149
0.313746228988
0.313108801337
0.312530530608
0.312029466309
0.311602620013
0.311247322031
0.310961122589
0.310765254392
56.197133784
56.197133784
56.197133784
56.1971337839
56.1971337839
56.1971337839
56.1971337839
56.1971337839
56.1971337839
56.1971337839
56.1971337839
56.1971337839
56.1971337839
56.1971337839
56.1971337837
56.1971337723
56.1971331256
56.1970968985
56.1951166144
56.1183257937
20.9751276534
9.99372476609
4.52717271929
2.43577443261
1.35076680234
0.814099591486
0.592602798586
0.519086037967
0.494717484419
0.483050048835
0.47443410516
0.466709567124
0.459440335746
0.452530328411
0.445952447286
0.43969040079
0.433731032469
0.428062138318
0.422672796109
0.417549811268
0.412682540253
0.408061399231
0.403676322613
0.399517962305
0.395577336984
0.39184588522
0.388315639731
0.384978196579
0.381827649572
0.378857465822
0.376061617909
0.373433578341
0.370966544298
0.368654783249
0.366494578906
0.364483324525
0.362616862767
0.360889338781
0.359294970537
0.357831983209
0.356498809499
0.355293075809
0.354211887886
0.353250143782
0.352406944948
0.351679982824
0.351067266231
0.350566683754
0.350175788207
0.349938006903
56.1971337852
56.1971337852
56.1971337852
56.1971337852
56.1971337852
56.1971337852
56.1971337852
56.1971337852
56.1971337852
56.1971337852
56.1971337852
56.1971337852
56.1971337851
56.1971337851
56.1971337846
56.1971337523
56.1971319214
56.1970296324
56.1921412359
51.9966617249
17.9723250128
8.54251121289
3.86373021691
2.11572657402
1.21412261928
0.792635121289
0.633074466595
0.581524011309
0.562143144727
0.550719443468
0.541285035081
0.532524944954
0.524182401814
0.516198169153
0.508550941642
0.50122676192
0.494213014464
0.487499391286
0.481075022926
0.474929381337
0.469054166459
0.463440152853
0.458079005467
0.452962679214
0.448083231047
0.443432887503
0.439005898762
0.434796449576
0.430800125062
0.427009477506
0.423420211995
0.420026872732
0.416826428158
0.41381396677
0.410985287417
0.408337502437
0.405869042979
0.403577830923
0.401460717441
0.399514274734
0.397735859536
0.396123462192
0.394695085497
0.39340923484
0.392286468062
0.391322832632
0.390516353752
0.389865076639
0.389366539265
0.389070334544
56.1971337862
56.1971337862
56.1971337862
56.1971337862
56.1971337862
56.1971337862
56.1971337862
56.1971337862
56.1971337862
56.1971337862
56.1971337862
56.1971337862
56.1971337862
56.1971337861
56.1971337845
56.1971336926
56.1971285231
56.1968426106
56.1846898713
41.7092822407
15.2875934672
7.17124301562
3.3404966244
1.86682987624
1.12418618481
0.800072947882
0.685529747738
0.647522353883
0.630676177091
0.618945476956
0.608530051935
0.598710370981
0.589280477215
0.580208736881
0.571479973315
0.56308228396
0.55500410194
0.547236454429
0.539770985458
0.532598936888
0.525711723266
0.519101245502
0.512760846637
0.506683365423
0.50086158584
0.495290821292
0.4899656552
0.484882804093
0.480058334603
0.475438230907
0.471050309046
0.466888508012
0.462950474447
0.459232705722
0.45573216136
0.452446518228
0.44937511298
0.446517791958
0.443871657664
0.441436131313
0.439208961937
0.43718901284
0.435375028615
0.433767328822
0.432363981279
0.431162981089
0.4301622348
0.429359368817
0.428751921022
0.428396889437
56.1971337871
56.1971337871
56.1971337871
56.1971337871
56.1971337871
56.1971337871
56.1971337871
56.1971337871
56.197133787
56.197133787
56.197133787
56.197133787
56.197133787
56.1971337869
56.1971337822
56.1971335107
56.1971182843
56.1962805123
56.162654105
29.0616775979
11.6061146795
5.44561247522
2.90986221237
1.6723146459
1.07189476936
0.827842180198
0.745007825027
0.715302457195
0.699547416027
0.687170789916
0.675773109413
0.66486445116
0.654342743691
0.644185051809
0.634378496516
0.624912629763
0.615778869262
0.60696718619
0.598470843426
0.590282720849
0.582395382548
0.574800684314
0.567493451622
0.560468864064
0.55372123863
0.547245451999
0.541038022374
0.535094457961
0.529409610811
0.523984003368
0.518814560394
0.513899482696
0.509237297676
0.504825634172
0.500664185017
0.496751764736
0.493088528635
0.489698991031
0.486532285312
0.483617021942
0.480949686117
0.478529837296
0.476357184298
0.474432203416
0.472752604639
0.471317423089
0.470124904562
0.469172927532
0.468458391154
0.468046375532
56.1971337878
56.1971337878
56.1971337878
56.1971337878
56.1971337878
56.1971337878
56.1971337878
56.1971337878
56.1971337878
56.1971337878
56.1971337878
56.1971337878
56.1971337877
56.1971337875
56.1971337755
56.1971330974
56.1970954665
56.1950581027
56.1175292561
20.9424906754
10.0345513673
4.61027629775
2.55593428571
1.52554639591
1.05098541834
0.87033968746
0.809124642947
0.784249823817
0.768676851785
0.75538171781
0.742868157164
0.730825795476
0.719185070296
0.707922848164
0.697028823807
0.686494927804
0.67630858229
0.666462167323
0.656949235446
0.647762840671
0.638893489696
0.630336624332
0.622085445348
0.614136827592
0.606486210101
0.599129377614
0.592091420551
0.585307540053
0.578811048209
0.572598657381
0.566669601933
0.56102398049
0.555658310565
0.550574656946
0.545772850929
0.541252833099
0.537015831777
0.533062639325
0.529395766208
0.52601371062
0.522917342937
0.520107688869
0.517584743081
0.515377634698
0.513427751913
0.511765381229
0.510386916426
0.509289501606
0.508469620757
0.508001522198
56.1971337884
56.1971337884
56.1971337884
56.1971337884
56.1971337884
56.1971337884
56.1971337884
56.1971337884
56.1971337884
56.1971337884
56.1971337884
56.1971337884
56.1971337884
56.1971337877
56.1971337529
56.197131796
56.1970236285
56.191943986
51.7725207932
17.9589071841
8.60294473376
3.96265369379
2.26216663307
1.42111932373
1.05539529101
0.922814324855
0.876077594332
0.853898522453
0.837899865013
0.823527126385
0.809827797474
0.796599521474
0.783802292996
0.771413054328
0.759416471289
0.747805909187
0.736566866233
0.725689729445
0.715165469893
0.705022830639
0.695181508634
0.685677519127
0.676501285015
0.667648962263
0.659116357625
0.650900082317
0.642995222782
0.635403636166
0.628123380693
0.621152104424
0.614490097273
0.608167197029
0.602122532835
0.596391206185
0.590972980544
0.585868520282
0.581080275685
0.576610392875
0.572460311161
0.568632155231
0.565126484318
0.561944026343
0.559086765111
0.556554533257
0.554348241908
0.552466309237
0.550906896152
0.549667513653
0.548744891364
0.548223747309
56.197133789
56.197133789
56.1971337889
56.1971337889
56.1971337889
56.1971337889
56.1971337889
56.1971337889
56.1971337889
56.1971337889
56.1971337889
56.1971337889
56.1971337889
56.197133787
56.1971336812
56.1971278027
56.1968066598
56.1834958826
40.5738776493
15.033586255
7.1767030158
3.42751894554
2.02437392704
1.35334775962
1.07881054154
0.981674559351
0.944445885365
0.923626618633
0.906903103001
0.891386781028
0.876484351742
0.862070135394
0.848108233317
0.834622674015
0.82151312909
0.808813952752
0.79651744649
0.784610633366
0.773083692789
0.761924833119
0.751132902639
0.740699798261
0.730620083809
0.720925006052
0.711528138013
0.702477337489
0.693766112768
0.685390072639
0.677347339526
0.66964197226
0.662273711619
0.655240974302
0.6485472771
0.642192136183
0.636215915592
0.630550294993
0.625236452191
0.620270197292
0.615657322055
0.611401024158
0.607503563485
0.603966435352
0.600790415603
0.597976149924
0.595523682436
0.59343218155
0.591699977785
0.590324072016
0.589301712362
0.588728967217
56.1971337894
56.1971337894
56.1971337894
56.1971337894
56.1971337894
56.1971337894
56.1971337894
56.1971337894
56.1971337894
56.1971337894
56.1971337894
56.1971337894
56.1971337892
56.1971337829
56.1971334293
56.1971138871
56.196055543
56.1550887656
26.9744763866
11.3013219842
5.3681474524
2.97794455841
1.83841231315
1.31788836251
1.11651824658
1.04466296721
1.0134836729
0.993079732713
0.975446504609
0.958758675197
0.942699623406
0.927096062406
0.911977986843
0.897320208169
0.883116674754
0.869350687305
0.856012198351
0.843092295039
0.830617776805
0.818496396352
0.806765872558
0.795420239569
0.784452656206
0.773855276631
0.763631594329
0.753772324698
0.744311785557
0.735173480829
0.726401475177
0.717991375904
0.709943145451
0.70226017762
0.694943725935
0.687995994569
0.681420224815
0.675219061927
0.669436443183
0.663998435489
0.658948209238
0.654285793217
0.650015602818
0.646138479664
0.642656829689
0.639571765363
0.636883451035
0.634591184826
0.632693225803
0.631186839705
0.630068064848
0.629446272559
56.1971337898
56.1971337898
56.1971337898
56.1971337898
56.1971337898
56.1971337898
56.1971337898
56.1971337898
56.1971337898
56.1971337898
56.1971337898
56.1971337898
56.1971337894
56.1971337722
56.1971328211
56.1970810897
56.1943455253
56.0947734315
19.4710124821
9.59026521993
4.47932514701
2.60739416125
1.70280456715
1.31131069919
1.16547112456
1.11072151554
1.08301445734
1.06235034678
1.04359822522
1.02566771558
1.0083317921
0.991540922844
0.97526112489
0.959485177224
0.944232771547
0.929405378352
0.915040709445
0.901117234484
0.887631168542
0.874573358801
0.861972667502
0.849735380021
0.837907953179
0.826479999178
0.815445573667
0.804799566511
0.794544565769
0.784678671538
0.775243862613
0.766151412521
0.757454563872
0.749150037491
0.741239912599
0.733725168783
0.726612520293
0.719905500662
0.713646845437
0.70776133081
0.702295323491
0.697249741037
0.692627206976
0.688429268583
0.684659592919
0.681319523908
0.678409253326
0.675927476289
0.673872245474
0.672240527495
0.671028043341
0.67035859176
56.1971337902
56.1971337902
56.1971337902
56.1971337902
56.1971337902
56.1971337901
56.1971337901
56.1971337901
56.1971337901
56.1971337901
56.1971337901
56.1971337901
56.1971337888
56.1971337188
56.1971298655
56.1969213934
56.1880975879
46.0604538998
16.5990401101
7.96279233106
3.79702339583
2.31136739917
1.61322335715
1.32753576352
1.22211947603
1.1786079218
1.15263448183
1.13121890455
1.11122999777
1.09200585163
1.07341194717
1.05545223673
1.03800409798
1.0210950386
1.00471431306
0.988837451708
0.97350252564
0.958594745462
0.944159373196
0.930176568927
0.916641815128
0.903544390977
0.890930433762
0.878692569344
0.866876701847
0.855479055528
0.844499701253
0.833934433092
0.823823552755
0.81408500656
0.804767360654
0.795869758096
0.787394505757
0.779343644161
0.77172106674
0.764533578263
0.75782915692
0.75152094963
0.745664766275
0.740258958436
0.735304523856
0.730805134854
0.726765167172
0.723184579379
0.720064661861
0.717403265973
0.715197798857
0.71344511361
0.712141276778
0.711427213241
56.1971337905
56.1971337905
56.1971337905
56.1971337905
56.1971337905
56.1971337905
56.1971337905
56.1971337905
56.1971337905
56.1971337904
56.1971337904
56.1971337904
56.1971337854
56.1971335141
56.1971187529
56.1963300321
56.1659963415
30.4577161459
11.9253742803
6.01566456054
3.2415431091
2.08438390783
1.56396980927
1.36059754591
1.28359833474
1.24712429856
1.2217993257
1.19941165674
1.17815531906
1.15770602668
1.13785673107
1.11864470211
1.10003122336
1.08206130839
1.06459396041
1.0476771454
1.03129233515
1.01542176381
1.00010576066
0.985225258613
0.970826865437
0.956894001518
0.943422100613
0.930458382391
0.917888496642
0.905768839956
0.894092898201
0.882857649221
0.872062818134
0.8617645216
0.851854346076
0.842396416089
0.833388223031
0.824830804338
0.816724722764
0.809083183297
0.801959670632
0.7952615485
0.789039946817
0.783292386454
0.778022453019
0.773237473446
0.768943825927
0.765141898342
0.761827003324
0.758996999384
0.756647635281
0.754778937001
0.753388063795
0.752631820762
56.1971337908
56.1971337908
56.1971337908
56.1971337908
56.1971337907
56.1971337907
56.1971337907
56.1971337907
56.1971337907
56.1971337907
56.1971337907
56.1971337904
56.1971337729
56.1971328215
56.1970817846
56.1944186425
56.0996707679
19.7431053773
9.80505183432
4.67114716978
2.80261860228
1.9239560176
1.54943934567
1.40650671205
1.34833005013
1.31584270964
1.29029611074
1.26682249804
1.24426842346
1.22248600488
1.20141643671
1.18107218141
1.16132372874
1.14219793775
1.12373936054
1.10580798493
1.08844304778
1.07163201864
1.05540848586
1.03965551621
1.02441354773
1.00967482371
0.995430912959
0.981723031594
0.968434515737
0.955625116736
0.943288046108
0.931419240939
0.920070050055
0.909136762679
0.898678630532
0.888693141651
0.879180597261
0.870148652033
0.86159892405
0.853588474617
0.846019293479
0.838951626698
0.832385232547
0.826322082136
0.820765105393
0.815719806595
0.811191846574
0.807178549043
0.803676437681
0.800732980626
0.798247288295
0.796269289146
0.794792053058
0.793993014706
56.197133791
56.197133791
56.197133791
56.197133791
56.197133791
56.197133791
56.197133791
56.197133791
56.197133791
56.197133791
56.197133791
56.1971337894
56.1971337024
56.1971290019
56.1968790513
56.1867061833
44.4545939141
16.2868414683
7.91471020349
3.87228085682
2.46723762576
1.8238030622
1.56260571905
1.46150317569
1.41505047266
1.38446854524
1.3581183079
1.33328665431
1.30940921767
1.28640425868
1.26410173103
1.24253363603
1.22172567127
1.20152874067
1.18197934625
1.16312609304
1.14481277056
1.12709358618
1.10994134671
1.09341312846
1.0773656129
1.06184854711
1.04685785083
1.03243781327
1.01846788184
1.00500526243
0.99203980236
0.979572828295
0.967657894432
0.95617673226
0.945198289781
0.934718865439
0.924741783701
0.915268320697
0.90635888765
0.897905196586
0.889973156269
0.882563202942
0.875678254031
0.869325389092
0.863505052085
0.858217702806
0.853523765849
0.849310684871
0.845636353238
0.842496013896
0.839887610937
0.837806307418
0.836246748046
0.835409623151
56.1971337912
56.1971337912
56.1971337912
56.1971337912
56.1971337912
56.1971337912
56.1971337912
56.1971337912
56.1971337912
56.1971337912
56.1971337911
56.1971337832
56.197133355
56.1971104518
56.1959102545
56.1519995012
26.4162069493
11.3331409391
5.61765324096
3.26310229095
2.22627869425
1.7734957582
1.59514440904
1.52184157361
1.48232543821
1.45220485999
1.42480456644
1.39873393748
1.37353951725
1.34921481371
1.32577570046
1.30304528408
1.2811398882
1.25989917199
1.23935751552
1.21954883611
1.20032650773
1.18173605077
1.16374813259
1.14642053015
1.12960783028
1.11336349192
1.09766511265
1.0825789168
1.06796200836
1.05388139085
1.0403272664
1.02735884096
1.01484636729
1.00285667026
0.991396914227
0.980460407006
0.970106299927
0.960223525938
0.950877582941
0.942069473762
0.933802087023
0.92608083316
0.918906332517
0.912344918114
0.906279098496
0.900772534025
0.895821345945
0.891430319848
0.88759839113
0.884321347998
0.881596608907
0.87941804536
0.877779624135
0.876906474299
56.1971337914
56.1971337914
56.1971337914
56.1971337914
56.1971337914
56.1971337914
56.1971337914
56.1971337914
56.1971337914
56.1971337914
56.1971337907
56.197133751
56.1971316146
56.1970186014
56.1919400922
52.2813450957
18.2698167023
9.03974445157
4.42328321677
2.80955392687
2.07087219547
1.76345077482
1.64154909928
1.58540724322
1.54936168338
1.51883025507
1.49028212713
1.46282473553
1.43642689897
1.4108787135
1.38627785042
1.36244637761
1.33942162444
1.31724238345
1.29573212232
1.27494266526
1.25491080867
1.23548661798
1.21670905641
1.19862859111
1.18108612079
1.1641484828
1.14786385882
1.13207522772
1.11686374921
1.10221182633
1.0881757356
1.07462250836
1.06162157113
1.04916757097
1.03725617874
1.02596246316
1.01515023927
1.00489752326
0.995202766958
0.986068301808
0.977490806238
0.969551173047
0.962114821938
0.95525423721
0.948969828219
0.94326354836
0.938135915504
0.933585122628
0.929608033372
0.926199828912
0.923425982543
0.921152081782
0.919437591327
0.918530634073
56.1971337916
56.1971337916
56.1971337916
56.1971337916
56.1971337916
56.1971337916
56.1971337916
56.1971337916
56.1971337916
56.1971337915
56.197133787
56.1971335421
56.1971205494
56.1964440038
56.1714335483
32.7348823266
12.5031991127
6.87190866273
3.6324341898
2.49002067703
1.98593646389
1.78226142098
1.69668832647
1.65045452165
1.61562664887
1.58416941466
1.55433395071
1.525574259
1.4979322107
1.47120725682
1.44548738803
1.42060311097
1.39656887657
1.37344011701
1.35101688762
1.32943619854
1.30850708627
1.28829135513
1.26883161769
1.24996294138
1.23174538437
1.2142334591
1.19726077736
1.18089830747
1.16513169123
1.15001869648
1.13541367083
1.12138933358
1.10793741497
1.09512665462
1.08281599409
1.0710790357
1.05991555389
1.04932213163
1.03938103205
1.02994951759
1.02110544824
1.0128464993
1.00517765337
0.998101948973
0.991619586985
0.985801260777
0.980508475436
0.9758106539
0.971702461767
0.968181121816
0.965242414816
0.962882748829
0.961091475081
0.960150507589
56.1971337918
56.1971337918
56.1971337918
56.1971337918
56.1971337918
56.1971337918
56.1971337918
56.1971337918
56.1971337918
56.1971337913
56.1971337671
56.197132477
56.1970646605
56.1936758958
55.4608204446
19.2317190041
9.69773149474
4.80404327264
3.0685017621
2.28542078073
1.95483645443
1.82010258517
1.75656538574
1.71530962732
1.68042126632
1.64788547144
1.61666235527
1.58672563529
1.55782211799
1.53005217301
1.50328374386
1.4773931839
1.45240636955
1.42837844365
1.40510078377
1.38271062398
1.36102044352
1.34007288581
1.31992428651
1.30039946086
1.28155530433
1.26344643007
1.24590617486
1.2290014496
1.2128010367
1.1971371954
1.18208465387
1.16762950619
1.15384716746
1.1405829037
1.12791793932
1.11584023388
1.10443528394
1.09354952675
1.08325890071
1.07357357636
1.06449167618
1.05601075976
1.04821417747
1.04094846628
1.03429567183
1.02825279779
1.02281833417
1.01799033418
1.01376478801
1.01013842796
1.00710345903
1.0047310845
1.00286180181
1.00188745719
56.197133792
56.197133792
56.197133792
56.1971337919
56.1971337919
56.1971337919
56.1971337919
56.1971337919
56.1971337919
56.197133788
56.1971335848
56.1971229678
56.1965775827
56.1765825417
35.2336173982
13.7259026128
7.31039007528
3.85133361528
2.68736698706
2.17398487194
1.96233222203
1.87007026619
1.81852389141
1.77916722369
1.74359196341
1.70981418993
1.67733624355
1.64619963585
1.6161506867
1.58731097387
1.55953490778
1.53269702372
1.50691598451
1.48197205968
1.457904005
1.43477971845
1.41237156501
1.3908406073
1.36998256243
1.34985949809
1.33052671252
1.31180341127
1.2937577951
1.27645775771
1.25972004069
1.24362520428
1.22823875281
1.2133991722
1.19918294665
1.18558438066
1.17268338484
1.16031183302
1.14855756227
1.13741889902
1.12689457057
1.11707008574
1.107780844
1.09911339744
1.09106646144
1.08364316891
1.0768413827
1.070746648
1.06518587125
1.06024376372
1.05591436269
1.05219398049
1.04907621752
1.04655140828
1.04461206614
1.04360683719
56.1971337921
56.1971337921
56.1971337921
56.1971337921
56.1971337921
56.1971337921
56.1971337921
56.1971337921
56.1971337915
56.1971337644
56.1971323397
56.1970585515
56.1934751005
55.2618368512
19.2263307931
9.75256221031
4.92128624415
3.21574026693
2.45363562602
2.13003879253
1.99379233027
1.9261305531
1.88050943954
1.8413042859
1.80467914966
1.76968478895
1.73602310781
1.70377077659
1.6727731464
1.64286722655
1.61417153134
1.58645526551
1.55985369487
1.53412703394
1.50943934703
1.48553760061
1.46259327302
1.44036785159
1.41894352709
1.39837266149
1.37845096791
1.35934035993
1.34084561098
1.32304098289
1.3059085242
1.28952629795
1.27370642159
1.25853783935
1.24410488798
1.23021291936
1.21695941998
1.20433433374
1.19243254244
1.1810736517
1.17035508446
1.16026490982
1.15080834852
1.14197977389
1.13387676279
1.12631962246
1.11940271972
1.11311530889
1.10745257648
1.10241155966
1.09799156178
1.0941835803
1.0910713588
1.08847017671
1.08645931211
1.08542348026
56.1971337922
56.1971337922
56.1971337922
56.1971337922
56.1971337922
56.1971337922
56.1971337922
56.1971337921
56.1971337865
56.1971334969
56.1971186394
56.1963714648
56.1701316332
32.4074841851
12.6000246594
7.15256608976
3.89676198795
2.80827954137
2.33199100094
2.13169221126
2.03968848898
1.98473811449
1.94108708164
1.90125983192
1.8634842622
1.82733825381
1.79258636485
1.7593252681
1.72737282409
1.69657282096
1.66705594874
1.63865200316
1.61122623162
1.58491352618
1.55946594926
1.53505788087
1.51144113959
1.48868432077
1.46685585485
1.44572190743
1.42546289402
1.40585159078
1.38697098132
1.36889825284
1.35142834948
1.33464241552
1.31863081572
1.30318692576
1.28840771017
1.27428049143
1.26090615224
1.24807936368
1.23590309874
1.22437039448
1.21358159323
1.203341593
1.19374848904
1.18479898615
1.17649487752
1.16882858858
1.16190443773
1.15552062963
1.14977278392
1.14465348597
1.14015714936
1.13627942446
1.13301024263
1.13034023475
1.1282575842
1.12719350187
56.1971337924
56.1971337923
56.1971337923
56.1971337923
56.1971337923
56.1971337923
56.1971337923
56.1971337912
56.1971337341
56.1971308166
56.1969842914
56.190962356
51.1952077104
18.1904886771
9.24088890783
4.76954521681
3.24971628554
2.57455185499
2.28704029314
2.16044005947
2.09227446234
2.04299948527
1.99952114143
1.9587365749
1.91984442089
1.88262428371
1.84698446323
1.8127185343
1.77993201153
1.74844749606
1.71809126442
1.68901605489
1.6610452144
1.63403495895
1.60813881898
1.58310397751
1.55909983328
1.53588371653
1.51351931731
1.49208487853
1.4713488257
1.451500946
1.43230269205
1.41383566107
1.39619010975
1.37915116224
1.36280600299
1.34714490057
1.33226794955
1.31795735004
1.30431463283
1.29133882661
1.27912034512
1.2674625824
1.25646322191
1.24611362125
1.23652218693
1.22747855786
1.21909196707
1.21135767631
1.20426301852
1.19781140149
1.19199204245
1.18690928936
1.18234471471
1.17840217406
1.17506884339
1.17233147011
1.1701780634
1.16908700711
56.1971337925
56.1971337925
56.1971337925
56.1971337925
56.1971337925
56.1971337924
56.1971337922
56.1971337795
56.1971331386
56.1971012275
56.195551413
56.1450651065
25.4115769455
11.4343016725
6.36738642391
3.78372137081
2.8636769888
2.46376206037
2.29034434124
2.20367626072
2.14683573369
2.09932559924
2.05532278205
2.01356442519
1.97359201178
1.93546533952
1.89895258708
1.86396735884
1.83043101592
1.79817676595
1.76730883285
1.73753881608
1.70904332564
1.68164016362
1.65516722085
1.62981536175
1.60530441773
1.58182183666
1.55911388159
1.53725314856
1.51632752598
1.49608416714
1.47673595551
1.45802994351
1.4400668749
1.42294796458
1.40642690849
1.39061196555
1.37548213556
1.36115303248
1.34739621321
1.33431146784
1.32189243888
1.3102612699
1.29917794005
1.2887620064
1.27900897069
1.26990901148
1.26157776893
1.25378755182
1.24664686097
1.24014758322
1.23428456233
1.22904830123
1.22443572556
1.22043316157
1.2171507021
1.21434108836
1.2121142163
1.21099442256
56.1971337926
56.1971337926
56.1971337926
56.1971337926
56.1971337926
56.1971337925
56.1971337891
56.197133619
56.1971252082
56.1967168483
56.1824560338
40.7488379733
15.8632360065
8.18720248413
4.41908146314
3.20009867527
2.66256151377
2.42994095546
2.31947249128
2.25284725243
2.20032739389
2.15282422685
2.10803613166
2.06538867484
2.02467777185
1.98577520521
1.94854737338
1.91280999445
1.87867238626
1.84594378014
1.81443048816
1.78430946715
1.75537488958
1.7274627557
1.70074669315
1.67493690601
1.6502306548
1.62635488697
1.60349797283
1.58139637978
1.56013809255
1.53982060756
1.52017309622
1.50141759699
1.48330400792
1.46593460649
1.44928543934
1.43348420308
1.41826182255
1.40373755695
1.39003712872
1.37689119629
1.364429573
1.35264178873
1.34164711129
1.33119376448
1.32141391977
1.31229628004
1.30383092766
1.29601196287
1.28896828888
1.28243980372
1.27655175984
1.27128524747
1.26663435029
1.26258789859
1.25913452505
1.25626426204
1.2539625525
1.25281437583
56.1971337927
56.1971337927
56.1971337927
56.1971337927
56.1971337926
56.1971337917
56.1971337427