/*--------------------------------*- C++ -*----------------------------------*\
| =========                 |                                                 |
| \\      /  F ield         | foam-extend: Open Source CFD                    |
|  \\    /   O peration     | Version:     4.1                                |
|   \\  /    A nd           | Web:         http://www.foam-extend.org         |
|    \\/     M anipulation  |                                                 |
\*---------------------------------------------------------------------------*/
FoamFile
{
    version     2.0;
    format      ascii;
    class       volScalarField;
    location    "0.001";
    object      mu;
}
// * * * * * * * * * * * * * * * * * * * * * * * * * * * * * * * * * * * * * //

dimensions      [1 -1 -1 0 0 0 0];

internalField   nonuniform List<scalar> 
8400
(
1.68899961492e-05
1.68899961492e-05
1.68899961492e-05
1.68899961492e-05
1.68899961492e-05
1.68899961492e-05
1.68899961492e-05
1.68899961492e-05
1.68899961492e-05
1.68899961492e-05
1.68899961492e-05
1.68899961492e-05
1.68899961492e-05
1.68899961492e-05
1.68899961492e-05
1.68899961492e-05
1.68899961492e-05
1.68899961511e-05
1.68899962588e-05
1.68900021195e-05
1.68903242537e-05
1.68944716411e-05
5.78191892754e-05
0.000148121346649
0.00021155754142
0.000110003891722
7.38996302012e-05
6.1666053971e-05
5.77094267038e-05
5.64379228226e-05
5.60091883477e-05
5.5844829339e-05
5.57475761681e-05
5.56723141536e-05
5.56067435092e-05
5.55471413914e-05
5.54918114185e-05
5.54396684508e-05
5.53898574188e-05
5.53416843643e-05
5.52945026209e-05
5.52477740777e-05
5.52009907353e-05
5.51536950781e-05
5.5105791683e-05
5.50567105778e-05
5.50061122571e-05
5.49537418454e-05
5.48992754903e-05
5.48541610873e-05
5.47955103691e-05
5.4735274243e-05
5.46731559398e-05
5.46093592602e-05
5.45441926371e-05
5.44782181644e-05
5.44119752236e-05
5.43459228842e-05
5.42807326277e-05
5.42171588146e-05
5.41559826208e-05
5.40980008394e-05
5.40439836218e-05
5.39947239381e-05
5.39509631484e-05
5.39133760599e-05
5.38826736664e-05
5.38592212682e-05
5.38432060552e-05
5.38174657767e-05
1.68899961491e-05
1.68899961491e-05
1.68899961491e-05
1.68899961491e-05
1.68899961491e-05
1.68899961491e-05
1.68899961491e-05
1.68899961491e-05
1.68899961491e-05
1.68899961491e-05
1.68899961491e-05
1.68899961491e-05
1.68899961491e-05
1.68899961491e-05
1.68899961491e-05
1.68899961491e-05
1.68899961492e-05
1.68899961577e-05
1.6889996633e-05
1.68900230662e-05
1.6890817415e-05
1.97951626769e-05
8.74691006171e-05
0.000168110119051
0.000161608177225
9.05972831343e-05
6.6703407773e-05
5.88444457649e-05
5.63805075638e-05
5.56381410015e-05
5.54265457671e-05
5.53392053397e-05
5.52936980289e-05
5.52540655173e-05
5.521529094e-05
5.51763795022e-05
5.512564955e-05
5.50859027027e-05
5.50452287939e-05
5.5003581265e-05
5.49608450027e-05
5.49168454929e-05
5.48717794352e-05
5.48250359027e-05
5.47764815414e-05
5.47259812384e-05
5.46734111702e-05
5.46188868854e-05
5.45621272279e-05
5.45031572378e-05
5.44420603024e-05
5.43790387125e-05
5.43143254997e-05
5.42482261459e-05
5.41811131203e-05
5.41135125023e-05
5.40463244311e-05
5.3979751018e-05
5.39145194428e-05
5.38513932817e-05
5.37911477008e-05
5.37343654852e-05
5.3681679325e-05
5.36338723036e-05
5.35916473827e-05
5.35555926791e-05
5.35262943291e-05
5.35039161402e-05
5.34886207782e-05
5.3467016105e-05
1.6889996149e-05
1.6889996149e-05
1.6889996149e-05
1.6889996149e-05
1.6889996149e-05
1.6889996149e-05
1.6889996149e-05
1.6889996149e-05
1.6889996149e-05
1.6889996149e-05
1.6889996149e-05
1.6889996149e-05
1.6889996149e-05
1.6889996149e-05
1.6889996149e-05
1.6889996149e-05
1.68899961499e-05
1.68899961997e-05
1.68899989394e-05
1.68901523267e-05
1.68925802642e-05
3.91192297446e-05
0.000135109621401
0.00021773191346
0.000121653536053
7.69468460783e-05
6.19317554337e-05
5.71133738855e-05
5.567268042e-05
5.52570336611e-05
5.51471965485e-05
5.51129259972e-05
5.50910197468e-05
5.50701110285e-05
5.5036456295e-05
5.50124807427e-05
5.4986253707e-05
5.49578373669e-05
5.49272491578e-05
5.48947653451e-05
5.48599698532e-05
5.48227912144e-05
5.47831198896e-05
5.47408876231e-05
5.46961260302e-05
5.46488827964e-05
5.45989708497e-05
5.45464667426e-05
5.4480092828e-05
5.44226232461e-05
5.43627162753e-05
5.43007410295e-05
5.42370294807e-05
5.41720235627e-05
5.41065085419e-05
5.40405215592e-05
5.39746236797e-05
5.39095507888e-05
5.38464756529e-05
5.37857620331e-05
5.37278091381e-05
5.36731215113e-05
5.36225350213e-05
5.35769168129e-05
5.35371335669e-05
5.35030599524e-05
5.34855005931e-05
5.345348653e-05
5.34388712285e-05
5.3420686207e-05
1.68899961489e-05
1.68899961489e-05
1.68899961489e-05
1.68899961489e-05
1.68899961489e-05
1.68899961489e-05
1.68899961489e-05
1.68899961489e-05
1.68899961489e-05
1.68899961489e-05
1.68899961489e-05
1.68899961489e-05
1.68899961489e-05
1.68899961489e-05
1.68899961489e-05
1.6889996149e-05
1.68899961521e-05
1.68899963304e-05
1.68900060414e-05
1.68905333809e-05
1.68967608647e-05
7.55675771709e-05
0.000156914550235
0.000186465824778
9.88817952085e-05
6.93510784e-05
5.94874993312e-05
5.64205978471e-05
5.55098183261e-05
5.52598170732e-05
5.51823772771e-05
5.51521271848e-05
5.51285204154e-05
5.51053205799e-05
5.50812121302e-05
5.50446826235e-05
5.50177504283e-05
5.49887608375e-05
5.4957673321e-05
5.49244709412e-05
5.48891808861e-05
5.48514091814e-05
5.48110338029e-05
5.47679571058e-05
5.47221207245e-05
5.46736274199e-05
5.4622462834e-05
5.45685648177e-05
5.45120160771e-05
5.44529836707e-05
5.43917206348e-05
5.43285436508e-05
5.42638144152e-05
5.4197947238e-05
5.4131516527e-05
5.4065298822e-05
5.39994879114e-05
5.39347572944e-05
5.38717879208e-05
5.38113977886e-05
5.37540809511e-05
5.37003855927e-05
5.36509187314e-05
5.36062889412e-05
5.35670615968e-05
5.35339436927e-05
5.35069383617e-05
5.34862736252e-05
5.34721119536e-05
5.34547597149e-05
1.68899961489e-05
1.68899961489e-05
1.68899961489e-05
1.68899961489e-05
1.68899961489e-05
1.68899961489e-05
1.68899961489e-05
1.68899961489e-05
1.68899961489e-05
1.68899961489e-05
1.68899961489e-05
1.68899961489e-05
1.68899961489e-05
1.68899961489e-05
1.68899961489e-05
1.68899961492e-05
1.68899961633e-05
1.68899969478e-05
1.6890040898e-05
1.68910694862e-05
2.28167327982e-05
9.44242408127e-05
0.000176079382059
0.000147936378602
8.58778475016e-05
6.51445922925e-05
5.83804868037e-05
5.6310409965e-05
5.56932028549e-05
5.55158348449e-05
5.54381977552e-05
5.53949351404e-05
5.53568435766e-05
5.53200404574e-05
5.52833336184e-05
5.52348528708e-05
5.51972152648e-05
5.51582858839e-05
5.51179663889e-05
5.5076026187e-05
5.50322228047e-05
5.49863606545e-05
5.49382741886e-05
5.48882575095e-05
5.48358163339e-05
5.47808948299e-05
5.47235041222e-05
5.46637177696e-05
5.46018288419e-05
5.45378059368e-05
5.44719111637e-05
5.44044521551e-05
5.43357631287e-05
5.42662517117e-05
5.41964454843e-05
5.41269750346e-05
5.40586905585e-05
5.3992082415e-05
5.39274353167e-05
5.3865451499e-05
5.38068370105e-05
5.37523236437e-05
5.37023509057e-05
5.36573635814e-05
5.36178086764e-05
5.3584139807e-05
5.35567183694e-05
5.35357830944e-05
5.35214581924e-05
5.35047568417e-05
1.68899961489e-05
1.68899961489e-05
1.68899961489e-05
1.68899961489e-05
1.68899961489e-05
1.68899961489e-05
1.68899961489e-05
1.68899961489e-05
1.68899961489e-05
1.68899961489e-05
1.68899961489e-05
1.68899961489e-05
1.68899961489e-05
1.68899961489e-05
1.68899961489e-05
1.68899961498e-05
1.68899962001e-05
1.68899989709e-05
1.6890154118e-05
1.68926084214e-05
3.93034086335e-05
0.000135276244212
0.00021766227586
0.000122368118255
7.77885391146e-05
6.27850320174e-05
5.79949320682e-05
5.65263160156e-05
5.60761213467e-05
5.59248462443e-05
5.58490973071e-05
5.57881913896e-05
5.57309473205e-05
5.56749868892e-05
5.56197764617e-05
5.55648332926e-05
5.5509821721e-05
5.54545560669e-05
5.53879156421e-05
5.53318898372e-05
5.52745440407e-05
5.52157615924e-05
5.51553579973e-05
5.50931735167e-05
5.50290951443e-05
5.4963073681e-05
5.48951664544e-05
5.48258408389e-05
5.47547369268e-05
5.46820487872e-05
5.46080716903e-05
5.45332262469e-05
5.44575841743e-05
5.43816263252e-05
5.43060473322e-05
5.42315201973e-05
5.41584333671e-05
5.40870885388e-05
5.40180642861e-05
5.39526439414e-05
5.38913006366e-05
5.38344604013e-05
5.37822992518e-05
5.37463998787e-05
5.37050579964e-05
5.36700480358e-05
5.36416295545e-05
5.36200098587e-05
5.36053746072e-05
5.35781424411e-05
1.68899961489e-05
1.68899961489e-05
1.68899961489e-05
1.68899961489e-05
1.68899961489e-05
1.68899961489e-05
1.68899961489e-05
1.68899961489e-05
1.68899961489e-05
1.68899961489e-05
1.68899961489e-05
1.68899961489e-05
1.68899961489e-05
1.68899961489e-05
1.68899961489e-05
1.68899961513e-05
1.68899962863e-05
1.68900036614e-05
1.68904080809e-05
1.68953810741e-05
6.53791167493e-05
0.000151720506197
0.000202500825809
0.000106000139872
7.27754552926e-05
6.16058919082e-05
5.8087397126e-05
5.69982093596e-05
5.66375718628e-05
5.64870483191e-05
5.63915122725e-05
5.63067912762e-05
5.62256619068e-05
5.61464421266e-05
5.60685794411e-05
5.59917067161e-05
5.59159794547e-05
5.58408552673e-05
5.57658157156e-05
5.56906140694e-05
5.56151243958e-05
5.55389511996e-05
5.54618772456e-05
5.5384058113e-05
5.53053970633e-05
5.52254493795e-05
5.51442047577e-05
5.50617066134e-05
5.49780704679e-05
5.48934838018e-05
5.48084180024e-05
5.47234097378e-05
5.4638275609e-05
5.45534708479e-05
5.44697999298e-05
5.4387672685e-05
5.43076204928e-05
5.42300869078e-05
5.41556357041e-05
5.40848285575e-05
5.40183782527e-05
5.39569158254e-05
5.39011404633e-05
5.38513494171e-05
5.38077577441e-05
5.37707487012e-05
5.37406526519e-05
5.37176692658e-05
5.37018964571e-05
5.36852479286e-05
1.68899961489e-05
1.68899961489e-05
1.68899961489e-05
1.68899961489e-05
1.68899961489e-05
1.68899961489e-05
1.68899961489e-05
1.68899961489e-05
1.68899961489e-05
1.68899961489e-05
1.68899961489e-05
1.68899961489e-05
1.68899961489e-05
1.68899961489e-05
1.6889996149e-05
1.68899961557e-05
1.68899965348e-05
1.68900176018e-05
1.6890747126e-05
1.88051122636e-05
8.47067988196e-05
0.000164845694344
0.000169616194477
9.47085757544e-05
6.9529753866e-05
6.11414891952e-05
5.84850248133e-05
5.76467811677e-05
5.73377701534e-05
5.71718971437e-05
5.70490345029e-05
5.6935126771e-05
5.68253311243e-05
5.67190174918e-05
5.66152515333e-05
5.65134006906e-05
5.64135310328e-05
5.63149024827e-05
5.62171785865e-05
5.61200620801e-05
5.60232784859e-05
5.59267262837e-05
5.5830611433e-05
5.57341623583e-05
5.56372565314e-05
5.55398952958e-05
5.54419377394e-05
5.53435263178e-05
5.52455505248e-05
5.51473313238e-05
5.50491559328e-05
5.49512868683e-05
5.4854127977e-05
5.47580480601e-05
5.46641491241e-05
5.45724395524e-05
5.44834637263e-05
5.43979950488e-05
5.43164921694e-05
5.42393515366e-05
5.41671200303e-05
5.41002818702e-05
5.40506763541e-05
5.39963947196e-05
5.39491256318e-05
5.39090543363e-05
5.38764608541e-05
5.38515617784e-05
5.38344395481e-05
5.38174267156e-05
1.68899961488e-05
1.68899961488e-05
1.68899961488e-05
1.68899961488e-05
1.68899961488e-05
1.68899961488e-05
1.68899961488e-05
1.68899961488e-05
1.68899961488e-05
1.68899961488e-05
1.68899961488e-05
1.68899961488e-05
1.68899961488e-05
1.68899961488e-05
1.68899961492e-05
1.68899961685e-05
1.68899972309e-05
1.68900564536e-05
1.68912910616e-05
2.51968858837e-05
9.92414618131e-05
0.000181012752992
0.000144447492877
8.68786290746e-05
6.74969254624e-05
6.11475813014e-05
5.91139985327e-05
5.84325032847e-05
5.81499284503e-05
5.79723353525e-05
5.7806535157e-05
5.76607308605e-05
5.75195625495e-05
5.73821634919e-05
5.72490101648e-05
5.71188864219e-05
5.69912881303e-05
5.68658501527e-05
5.67424748496e-05
5.66212963622e-05
5.65012560214e-05
5.638249513e-05
5.62644863427e-05
5.61469415222e-05
5.60296997761e-05
5.5912681674e-05
5.57963956166e-05
5.56805599061e-05
5.55764855451e-05
5.54614990933e-05
5.53474194924e-05
5.523467281e-05
5.51243730759e-05
5.50159412345e-05
5.49099882927e-05
5.4807179433e-05
5.47078493558e-05
5.46126181744e-05
5.45221038957e-05
5.44367756582e-05
5.43571533968e-05
5.42840665278e-05
5.42179483828e-05
5.41590507961e-05
5.4107746159e-05
5.40643056991e-05
5.40289724408e-05
5.40019243335e-05
5.39832628627e-05
5.39653565567e-05
1.68899961488e-05
1.68899961488e-05
1.68899961488e-05
1.68899961488e-05
1.68899961488e-05
1.68899961488e-05
1.68899961488e-05
1.68899961488e-05
1.68899961488e-05
1.68899961488e-05
1.68899961488e-05
1.68899961488e-05
1.68899961488e-05
1.68899961488e-05
1.68899961498e-05
1.68899962069e-05
1.68899993332e-05
1.68901728671e-05
1.68928340074e-05
4.13360114201e-05
0.000136732729229
0.000218124710374
0.000124707647988
8.11479333521e-05
6.63239820019e-05
6.14899697186e-05
5.99077558008e-05
5.93380943957e-05
5.90547679234e-05
5.88482331419e-05
5.8660455175e-05
5.84803981924e-05
5.83055771597e-05
5.81359863536e-05
5.79711415116e-05
5.78104447321e-05
5.76533338607e-05
5.74992695858e-05
5.73478944079e-05
5.71997132469e-05
5.70538534293e-05
5.69097281936e-05
5.67670961939e-05
5.66262689446e-05
5.64871257921e-05
5.6349153259e-05
5.62126111971e-05
5.60771778506e-05
5.59429382537e-05
5.58101032897e-05
5.56794547627e-05
5.55511471772e-05
5.54252220469e-05
5.53021127844e-05
5.51822423783e-05
5.50666216348e-05
5.49555826702e-05
5.48609046585e-05
5.47604222177e-05
5.46664979617e-05
5.45790994536e-05
5.44987681925e-05
5.44262997442e-05
5.43618336264e-05
5.43057329492e-05
5.4258272416e-05
5.42196711204e-05
5.41901093067e-05
5.41696543302e-05
5.415093629e-05
1.68899961488e-05
1.68899961488e-05
1.68899961488e-05
1.68899961488e-05
1.68899961488e-05
1.68899961488e-05
1.68899961488e-05
1.68899961488e-05
1.68899961488e-05
1.68899961488e-05
1.68899961488e-05
1.68899961488e-05
1.68899961488e-05
1.68899961489e-05
1.68899961514e-05
1.68899962939e-05
1.68900040142e-05
1.68904224524e-05
1.68955453618e-05
6.55577799384e-05
0.000151432365126
0.000206311562346
0.000110594158254
7.71117349424e-05
6.58046291349e-05
6.21152977046e-05
6.08623361811e-05
6.03463658457e-05
6.00548621293e-05
5.98119830084e-05
5.95851848184e-05
5.93672771838e-05
5.91563516133e-05
5.89510397707e-05
5.87511793295e-05
5.85574263074e-05
5.83680493333e-05
5.81826703708e-05
5.80020314724e-05
5.78249464123e-05
5.76514424015e-05
5.74805887743e-05
5.73121639442e-05
5.714631838e-05
5.69833263785e-05
5.6822151386e-05
5.66753779491e-05
5.65185825148e-05
5.63639133368e-05
5.62118194009e-05
5.60631089873e-05
5.59173077823e-05
5.57747778826e-05
5.56359516014e-05
5.55020850347e-05
5.53730207601e-05
5.52494124321e-05
5.51319280081e-05
5.50208745301e-05
5.49167536978e-05
5.48201169923e-05
5.4731476447e-05
5.46513031156e-05
5.45928822898e-05
5.4531285313e-05
5.44793973859e-05
5.44372610542e-05
5.44049667848e-05
5.43825158966e-05
5.43626946591e-05
1.68899961488e-05
1.68899961488e-05
1.68899961488e-05
1.68899961488e-05
1.68899961488e-05
1.68899961488e-05
1.68899961488e-05
1.68899961488e-05
1.68899961488e-05
1.68899961488e-05
1.68899961488e-05
1.68899961488e-05
1.68899961488e-05
1.68899961489e-05
1.68899961563e-05
1.68899965645e-05
1.68900190137e-05
1.68907790094e-05
1.89191416788e-05
8.47925742301e-05
0.000164326868949
0.000174711386222
9.97904671579e-05
7.44180052689e-05
6.58296527723e-05
6.29779831767e-05
6.19596825599e-05
6.14765490442e-05
6.11518954838e-05
6.08656275979e-05
6.0594408258e-05
6.03324481632e-05
6.00799576565e-05
5.98352697073e-05
5.95976321708e-05
5.93678489198e-05
5.91442364833e-05
5.89259975605e-05
5.87123711321e-05
5.85160918358e-05
5.83123143673e-05
5.81128946131e-05
5.79169055626e-05
5.77240812029e-05
5.75354593062e-05
5.73498898553e-05
5.7167193624e-05
5.69879179592e-05
5.68124784676e-05
5.66405999941e-05
5.64723378685e-05
5.63197631119e-05
5.61599535415e-05
5.60049821708e-05
5.58551752379e-05
5.57114559234e-05
5.55744788888e-05
5.54443432437e-05
5.53220276968e-05
5.52076329283e-05
5.51016709137e-05
5.50046612339e-05
5.49170764659e-05
5.48393446528e-05
5.47721376457e-05
5.47155420227e-05
5.46695735473e-05
5.46343466425e-05
5.46098689673e-05
5.45890651204e-05
1.68899961488e-05
1.68899961488e-05
1.68899961488e-05
1.68899961488e-05
1.68899961488e-05
1.68899961488e-05
1.68899961488e-05
1.68899961488e-05
1.68899961488e-05
1.68899961488e-05
1.68899961488e-05
1.68899961488e-05
1.68899961488e-05
1.68899961492e-05
1.68899961716e-05
1.68899973901e-05
1.68900644223e-05
1.68914102493e-05
2.60992024189e-05
0.000100693513149
0.000181081896058
0.000148766373329
9.18532014046e-05
7.2704649014e-05
6.62558137562e-05
6.40458822926e-05
6.31754008497e-05
6.27013384364e-05
6.23351599697e-05
6.19997549036e-05
6.1679722445e-05
6.13719913957e-05
6.10743388919e-05
6.07994261137e-05
6.05212573576e-05
6.02508670474e-05
5.99887897861e-05
5.97342925077e-05
5.94864624416e-05
5.92445218396e-05
5.9008966522e-05
5.87787709613e-05
5.85530999318e-05
5.83328308362e-05
5.81288299991e-05
5.79173379391e-05
5.77103833017e-05
5.75076343625e-05
5.73089086987e-05
5.71151144207e-05
5.69265013933e-05
5.67431453137e-05
5.65651288025e-05
5.63926772635e-05
5.62391433187e-05
5.6080641558e-05
5.59294778336e-05
5.57860916828e-05
5.56510845935e-05
5.55255026191e-05
5.54098020924e-05
5.53040576557e-05
5.52089258365e-05
5.51246915285e-05
5.50515570064e-05
5.49898066506e-05
5.49396492275e-05
5.49011816801e-05
5.48744379787e-05
5.48525209963e-05
1.68899961488e-05
1.68899961488e-05
1.68899961488e-05
1.68899961488e-05
1.68899961488e-05
1.68899961488e-05
1.68899961488e-05
1.68899961488e-05
1.68899961488e-05
1.68899961488e-05
1.68899961488e-05
1.68899961488e-05
1.68899961488e-05
1.68899961502e-05
1.68899962251e-05
1.68900002736e-05
1.68902208618e-05
1.6893389318e-05
4.58842994247e-05
0.000140224337946
0.000220012293532
0.000127896468417
8.60872322255e-05
7.17870890504e-05
6.69780511095e-05
6.52588700664e-05
6.44894163558e-05
6.39971206641e-05
6.35862686506e-05
6.3200216548e-05
6.28426029285e-05
6.24859508551e-05
6.21423976052e-05
6.18097061449e-05
6.14882287211e-05
6.11768105426e-05
6.08748810077e-05
6.05822548416e-05
6.03099608416e-05
6.00330120504e-05
5.97625930317e-05
5.9499403972e-05
5.92426869724e-05
5.89914588454e-05
5.87475080551e-05
5.85090164292e-05
5.82878250125e-05
5.80601919209e-05
5.78384743622e-05
5.76223003674e-05
5.74116370036e-05
5.72078234365e-05
5.70107314839e-05
5.68210132499e-05
5.66385351106e-05
5.64636888567e-05
5.63102511434e-05
5.61535834025e-05
5.60065471186e-05
5.58698612381e-05
5.57436937203e-05
5.56285526123e-05
5.5524828438e-05
5.54329286285e-05
5.53533791555e-05
5.52865345564e-05
5.52322266961e-05
5.51905511998e-05
5.51614997867e-05
5.51384811805e-05
1.68899961488e-05
1.68899961488e-05
1.68899961488e-05
1.68899961488e-05
1.68899961488e-05
1.68899961488e-05
1.68899961488e-05
1.68899961488e-05
1.68899961488e-05
1.68899961488e-05
1.68899961488e-05
1.68899961488e-05
1.68899961489e-05
1.68899961525e-05
1.6889996354e-05
1.68900070681e-05
1.68905700265e-05
1.6897140493e-05
7.48219201731e-05
0.000155263952951
0.000200394574176
0.000112674995749
8.21380930876e-05
7.15930439793e-05
6.80094477535e-05
6.66200063577e-05
6.5902285644e-05
6.53835272494e-05
6.49180525837e-05
6.44767396891e-05
6.40528745661e-05
6.3645322295e-05
6.32513469497e-05
6.28721347666e-05
6.25169728539e-05
6.21624661066e-05
6.18192650458e-05
6.14855951368e-05
6.11629557982e-05
6.08495715005e-05
6.05571317693e-05
6.02595802991e-05
5.99702777735e-05
5.96888147998e-05
5.94143370696e-05
5.91460441736e-05
5.88856259587e-05
5.86319135097e-05
5.83978732761e-05
5.81574387346e-05
5.7925342037e-05
5.77008007266e-05
5.74840893634e-05
5.72751755767e-05
5.70749900996e-05
5.68845180161e-05
5.67165601163e-05
5.65458826798e-05
5.63861556261e-05
5.62377327561e-05
5.61008602255e-05
5.59760279809e-05
5.58637073497e-05
5.57645995136e-05
5.56789610328e-05
5.56066775e-05
5.55479049203e-05
5.55027366045e-05
5.54711825109e-05
5.54470010347e-05
1.68899961488e-05
1.68899961488e-05
1.68899961488e-05
1.68899961488e-05
1.68899961488e-05
1.68899961488e-05
1.68899961488e-05
1.68899961488e-05
1.68899961488e-05
1.68899961488e-05
1.68899961488e-05
1.68899961488e-05
1.68899961491e-05
1.6889996164e-05
1.68899969716e-05
1.68900407646e-05
1.6891101889e-05
2.21427487257e-05
9.21524875435e-05
0.000171217638069
0.000166735845478
0.000101777781147
7.96354509636e-05
7.20186481454e-05
6.92835392373e-05
6.8115226602e-05
6.7408666873e-05
6.68365023112e-05
6.63084981446e-05
6.58041875302e-05
6.53211320053e-05
6.48694974465e-05
6.44233016412e-05
6.3992793337e-05
6.35787080711e-05
6.31780006454e-05
6.2803824888e-05
6.24288887047e-05
6.20662209561e-05
6.17136293486e-05
6.13721160635e-05
6.10396794954e-05
6.07305340325e-05
6.04168403957e-05
6.01113900649e-05
5.98141139577e-05
5.95257339216e-05
5.92453544557e-05
5.89857807908e-05
5.87214476201e-05
5.84660489191e-05
5.82194146661e-05
5.79821623009e-05
5.77540148963e-05
5.75354615137e-05
5.73285023364e-05
5.7146199691e-05
5.69607154964e-05
5.67877351635e-05
5.66273064621e-05
5.64797426397e-05
5.63455369029e-05
5.62249281988e-05
5.61182836649e-05
5.60258439562e-05
5.59477829856e-05
5.58842786351e-05
5.58356894101e-05
5.58016398124e-05
5.57761152931e-05
1.68899961488e-05
1.68899961488e-05
1.68899961488e-05
1.68899961488e-05
1.68899961488e-05
1.68899961488e-05
1.68899961488e-05
1.68899961488e-05
1.68899961488e-05
1.68899961488e-05
1.68899961488e-05
1.68899961488e-05
1.68899961499e-05
1.68899962078e-05
1.68899992957e-05
1.68901652304e-05
1.6892768411e-05
3.86485439451e-05
0.000132700891396
0.000202827358302
0.00013988294659
9.40827693728e-05
7.83207318858e-05
7.28443338478e-05
7.07435402091e-05
6.97006609353e-05
6.89816714244e-05
6.83484205096e-05
6.77539819097e-05
6.71989400698e-05
6.66536430314e-05
6.61315325236e-05
6.56282692169e-05
6.51583680412e-05
6.46920419535e-05
6.4242877565e-05
6.38101008085e-05
6.33915760634e-05
6.30001776296e-05
6.26088293931e-05
6.22297939667e-05
6.18613856953e-05
6.15042240986e-05
6.11713744228e-05
6.08340605217e-05
6.05069908048e-05
6.01900895217e-05
5.9882340963e-05
5.95836827813e-05
5.93097023426e-05
5.90301254342e-05
5.87617447446e-05
5.85038292677e-05
5.82563378872e-05
5.80194657596e-05
5.77949969607e-05
5.75970514431e-05
5.73976257235e-05
5.72113022914e-05
5.70383615765e-05
5.68792323285e-05
5.67345808549e-05
5.66049507492e-05
5.64911865868e-05
5.63924561652e-05
5.63089195485e-05
5.62409776483e-05
5.61887937716e-05
5.61521630939e-05
5.61252412327e-05
1.68899961488e-05
1.68899961488e-05
1.68899961488e-05
1.68899961488e-05
1.68899961488e-05
1.68899961488e-05
1.68899961488e-05
1.68899961488e-05
1.68899961488e-05
1.68899961488e-05
1.68899961488e-05
1.68899961489e-05
1.68899961526e-05
1.68899963559e-05
1.68900070335e-05
1.68905600078e-05
1.68970092453e-05
7.29243801609e-05
0.000153517457762
0.000209084594616
0.000120726959997
8.90073196715e-05
7.79696027647e-05
7.40231081423e-05
7.2348321578e-05
7.1366980131e-05
7.06030961275e-05
6.99174134235e-05
6.9253612619e-05
6.8619076768e-05
6.80121971592e-05
6.74421577037e-05
6.68827735991e-05
6.63444273399e-05
6.58406039978e-05
6.53421924526e-05
6.48613054973e-05
6.43979662484e-05
6.3963352476e-05
6.35304453001e-05
6.31115602403e-05
6.27060384325e-05
6.23140840359e-05
6.19478741386e-05
6.15784072094e-05
6.12210036666e-05
6.08751051896e-05
6.05401414694e-05
6.0229663254e-05
5.99164031783e-05
5.9614538707e-05
5.9323924297e-05
5.90442974979e-05
5.87778161672e-05
5.85236359434e-05
5.82965398703e-05
5.80684804918e-05
5.78541301164e-05
5.76539140227e-05
5.74690005685e-05
5.72990325679e-05
5.71448844758e-05
5.70066150075e-05
5.68849370926e-05
5.67792437317e-05
5.67040418202e-05
5.66309987412e-05
5.65748639122e-05
5.65353070124e-05
5.65069134492e-05
1.68899961488e-05
1.68899961488e-05
1.68899961488e-05
1.68899961488e-05
1.68899961488e-05
1.68899961488e-05
1.68899961488e-05
1.68899961488e-05
1.68899961488e-05
1.68899961488e-05
1.68899961488e-05
1.68899961491e-05
1.68899961678e-05
1.68899971622e-05
1.68900501468e-05
1.68912420279e-05
2.32103194335e-05
9.38455144667e-05
0.000171898309168
0.000170599993123
0.000107755816363
8.60723963662e-05
7.84378473375e-05
7.55120870313e-05
7.40843387213e-05
7.31246687815e-05
7.22927757357e-05
7.15160444495e-05
7.07788717871e-05
7.0087488246e-05
6.94135926597e-05
6.87691604238e-05
6.81639043818e-05
6.75705949807e-05
6.69992607162e-05
6.64652040772e-05
6.59361501583e-05
6.54270611832e-05
6.49352347239e-05
6.44751769256e-05
6.4016701929e-05
6.35725794994e-05
6.31439410285e-05
6.27429893217e-05
6.23412568981e-05
6.19530965855e-05
6.15768817234e-05
6.1213997373e-05
6.08784718519e-05
6.05393612411e-05
6.02139260709e-05
5.9901533342e-05
5.96022546779e-05
5.9316227046e-05
5.90582674238e-05
5.87999335059e-05
5.85564925268e-05
5.83278123622e-05
5.81142670713e-05
5.79173127382e-05
5.77366080141e-05
5.75726661019e-05
5.74408380749e-05
5.73108221697e-05
5.71984828772e-05
5.71035146862e-05
5.70261088229e-05
5.69664240071e-05
5.69242185512e-05
5.68944348382e-05
1.68899961488e-05
1.68899961488e-05
1.68899961488e-05
1.68899961488e-05
1.68899961488e-05
1.68899961488e-05
1.68899961488e-05
1.68899961488e-05
1.68899961488e-05
1.68899961488e-05
1.68899961488e-05
1.68899961505e-05
1.68899962428e-05
1.68900010839e-05
1.68902550468e-05
1.68937979479e-05
4.72800536108e-05
0.000140068513102
0.000214227188641
0.00014114413348
9.92496631254e-05
8.47026737063e-05
7.94396085024e-05
7.71937939925e-05
7.59068904699e-05
7.49092408711e-05
7.40030525368e-05
7.31623144887e-05
7.23477743132e-05
7.15715532797e-05
7.0842672664e-05
7.01315088919e-05
6.94657943085e-05
6.88146195965e-05
6.81896362171e-05
6.76045420792e-05
6.702689295e-05
6.64719442578e-05
6.59356548176e-05
6.54341545326e-05
6.49359410755e-05
6.44549984104e-05
6.3989294405e-05
6.35553777331e-05
6.31200812291e-05
6.2700107142e-05
6.22947302299e-05
6.19185528213e-05
6.15408201813e-05
6.11765823225e-05
6.08278186753e-05
6.04932859676e-05
6.01881646213e-05
5.98825135837e-05
5.95923204677e-05
5.93175246434e-05
5.90585679165e-05
5.88159864338e-05
5.85901169364e-05
5.83967397265e-05
5.8205141187e-05
5.80311855074e-05
5.78750398904e-05
5.77370398667e-05
5.76182002134e-05
5.75177551816e-05
5.74357957918e-05
5.73723542704e-05
5.7327374911e-05
5.7295990598e-05
1.68899961488e-05
1.68899961488e-05
1.68899961488e-05
1.68899961488e-05
1.68899961488e-05
1.68899961488e-05
1.68899961488e-05
1.68899961488e-05
1.68899961488e-05
1.68899961488e-05
1.68899961489e-05
1.68899961576e-05
1.68899966163e-05
1.68900207047e-05
1.6890840063e-05
1.86750463688e-05
8.30320221027e-05
0.000160422251845
0.000198192194572
0.00012148468741
9.42317487491e-05
8.45755039378e-05
8.08626113509e-05
7.90190547259e-05
7.77769744938e-05
7.67168185002e-05
7.5742794241e-05
7.4808032217e-05
7.3931039203e-05
7.30817915714e-05
7.22850919388e-05
7.15102021803e-05
7.07690613744e-05
7.00736460998e-05
6.93923946684e-05
6.87400232663e-05
6.81268015066e-05
6.75249361684e-05
6.69455323712e-05
6.64026104702e-05
6.58633806299e-05
6.53447228732e-05
6.48596206597e-05
6.43748032137e-05
6.39082627385e-05
6.34579121609e-05
6.30386636438e-05
6.26195952206e-05
6.22162767756e-05
6.18279970888e-05
6.14547571026e-05
6.11138964383e-05
6.07725592592e-05
6.04476308897e-05
6.01393423756e-05
5.98480555414e-05
5.95731352988e-05
5.93330206332e-05
5.90938646706e-05
5.88733715763e-05
5.86711005691e-05
5.84874192188e-05
5.83233412355e-05
5.81786038472e-05
5.80530931138e-05
5.79470307717e-05
5.78771060185e-05
5.78097685233e-05
5.77617916077e-05
5.77286470156e-05
1.68899961488e-05
1.68899961488e-05
1.68899961488e-05
1.68899961488e-05
1.68899961488e-05
1.68899961488e-05
1.68899961488e-05
1.68899961488e-05
1.68899961488e-05
1.68899961488e-05
1.68899961498e-05
1.68899962031e-05
1.68899989777e-05
1.6890143759e-05
1.68924928241e-05
3.47032216309e-05
0.000121740933615
0.000186442945639
0.000159303069376
0.000109231621219
9.17626001862e-05
8.53602788538e-05
8.25846762023e-05
8.09593622059e-05
7.96930264333e-05
7.85500778647e-05
7.74910312272e-05
7.64720003705e-05
7.55176197972e-05
7.45954212486e-05
7.37297116147e-05
7.28904909672e-05
7.20874229517e-05
7.13354908426e-05
7.05993663951e-05
6.99105039533e-05
6.92334823794e-05
6.85834614979e-05
6.7974363133e-05
6.7373016774e-05
6.67947700428e-05
6.62545427391e-05
6.57170246577e-05
6.51995645123e-05
6.47011935336e-05
6.42364859859e-05
6.37725594858e-05
6.3326712124e-05
6.28978476835e-05
6.25024273635e-05
6.21069684825e-05
6.17287556784e-05
6.13678713692e-05
6.102363318e-05
6.07148774002e-05
6.04068088919e-05
6.01172570215e-05
5.98464194729e-05
5.95948296573e-05
5.93626382685e-05
5.91499465541e-05
5.89744867397e-05
5.88017309955e-05
5.86495900499e-05
5.85177202554e-05
5.8406053255e-05
5.83150096781e-05
5.8244194176e-05
5.81933852707e-05
5.8158625861e-05
1.68899961488e-05
1.68899961488e-05
1.68899961488e-05
1.68899961488e-05
1.68899961488e-05
1.68899961488e-05
1.68899961488e-05
1.68899961488e-05
1.68899961488e-05
1.68899961489e-05
1.68899961542e-05
1.68899964355e-05
1.68900109834e-05
1.68906932011e-05
1.71924238899e-05
7.66765578665e-05
0.00015460286474
0.000214759331723
0.000132868785843
0.000102017638616
9.10318562504e-05
8.6679314167e-05
8.44691344364e-05
8.29229755319e-05
8.15946472531e-05
8.03774790999e-05
7.92133181805e-05
7.81252309195e-05
7.70793209897e-05
7.60983311483e-05
7.51658453056e-05
7.4262019674e-05
7.3398324577e-05
7.25894705776e-05
7.1799368179e-05
7.10594530596e-05
7.03350247522e-05
6.96394523748e-05
6.89873114039e-05
6.83452270065e-05
6.77279589868e-05
6.71492555295e-05
6.65762658654e-05
6.602429151e-05
6.55108481913e-05
6.50003364708e-05
6.45091959232e-05
6.40371520779e-05
6.3599966291e-05
6.31642289865e-05
6.27472202389e-05
6.23485576102e-05
6.19861228292e-05
6.16244558816e-05
6.12809593718e-05
6.09576510321e-05
6.06542129195e-05
6.03704108374e-05
6.01250325905e-05
5.98816029887e-05
5.96590597417e-05
5.94573895936e-05
5.92769973435e-05
5.91176525551e-05
5.89796170102e-05
5.88628275708e-05
5.87669065043e-05
5.87102730456e-05
5.86560896179e-05
5.86194444089e-05
1.68899961488e-05
1.68899961488e-05
1.68899961488e-05
1.68899961488e-05
1.68899961488e-05
1.68899961488e-05
1.68899961488e-05
1.68899961488e-05
1.68899961488e-05
1.68899961496e-05
1.68899961942e-05
1.68899984826e-05
1.68901161897e-05
1.68921299166e-05
3.11768742168e-05
0.000108715944685
0.000179883003776