/*--------------------------------*- C++ -*----------------------------------*\
| =========                 |                                                 |
| \\      /  F ield         | foam-extend: Open Source CFD                    |
|  \\    /   O peration     | Version:     4.1                                |
|   \\  /    A nd           | Web:         http://www.foam-extend.org         |
|    \\/     M anipulation  |                                                 |
\*---------------------------------------------------------------------------*/
FoamFile
{
    version     2.0;
    format      ascii;
    class       volScalarField;
    location    "0.001";
    object      N;
}
// * * * * * * * * * * * * * * * * * * * * * * * * * * * * * * * * * * * * * //

dimensions      [0 0 0 0 0 0 0];

internalField   nonuniform List<scalar> 
8400
(
7.71492892515e-105
7.71492892519e-105
7.71492892523e-105
7.71492892527e-105
7.71492892531e-105
7.71492892535e-105
7.71492892539e-105
7.71492892542e-105
7.71492892546e-105
7.7149289255e-105
7.71492892553e-105
7.71492892557e-105
7.7149289256e-105
7.71492892564e-105
7.71492892567e-105
7.71492892576e-105
7.71492892896e-105
7.71492910893e-105
7.71493931834e-105
7.71549493453e-105
7.74603477902e-105
8.13922665017e-105
8.60075901967e-13
0.143530204034
0.714748211665
0.473051356068
0.323446524128
0.255382529785
0.227785787761
0.21753110827
0.214098328862
0.212969398899
0.212446366727
0.212096401955
0.211806416118
0.211545860422
0.211303864335
0.211074190676
0.210853399435
0.210638475005
0.210426564327
0.210215300503
0.210002399419
0.209785785109
0.209564787694
0.209337108354
0.209101405298
0.208856546786
0.208600378061
0.208389847067
0.208112299163
0.207827241275
0.207532905174
0.207230152619
0.206920427681
0.206606028167
0.20628951482
0.205973546046
0.205661339362
0.205356569752
0.205062485132
0.204783188786
0.204522409498
0.204283910067
0.2040713005
0.203887879665
0.203736851142
0.203620028856
0.203538131422
0.203311358805
7.71492891198e-105
7.71492891199e-105
7.71492891201e-105
7.71492891203e-105
7.71492891204e-105
7.71492891206e-105
7.71492891207e-105
7.71492891209e-105
7.7149289121e-105
7.71492891212e-105
7.71492891213e-105
7.71492891215e-105
7.71492891216e-105
7.71492891217e-105
7.71492891219e-105
7.71492891245e-105
7.71492892664e-105
7.71492973624e-105
7.71497479125e-105
7.7174807802e-105
7.79278879284e-105
1.78068604908e-38
4.42537905007e-06
0.431738867336
0.615846187994
0.400092352458
0.28641131939
0.237985453525
0.219159231259
0.21270052131
0.210796025951
0.210118444869
0.20979992232
0.209546439505
0.20930673044
0.209070605476
0.208778646415
0.208541192297
0.208300992981
0.208058413499
0.207813011921
0.207563867427
0.207311257489
0.207052787644
0.20678785718
0.206515878485
0.206236210668
0.205948354847
0.205651544595
0.20534580779
0.205031629434
0.204709859337
0.204381444946
0.20404804355
0.203711218207
0.203373056941
0.203036982708
0.202704912304
0.202380650013
0.20206797565
0.201769094425
0.201487078059
0.201225070713
0.200987100166
0.200776924385
0.200597404401
0.200450692859
0.200337514506
0.200258418084
0.200071681184
7.71492890535e-105
7.71492890536e-105
7.71492890537e-105
7.71492890538e-105
7.71492890539e-105
7.71492890539e-105
7.7149289054e-105
7.71492890541e-105
7.71492890542e-105
7.71492890543e-105
7.71492890544e-105
7.71492890545e-105
7.71492890546e-105
7.71492890547e-105
7.7149289055e-105
7.71492890695e-105
7.71492898957e-105
7.71493371367e-105
7.71519344917e-105
7.72973528513e-105
7.95991520465e-105
4.06291826826e-23
0.0369645184344
0.750825110006
0.511402207513
0.339424186679
0.258935442383
0.226087196547
0.214107766834
0.210311718759
0.209261874322
0.208923510485
0.208726111793
0.208554439966
0.208327276562
0.208150762745
0.20796665944
0.207775526493
0.207577361205
0.207373041337
0.207160944018
0.206940542274
0.206711096464
0.20647219958
0.206223823691
0.205965897777
0.205697776574
0.205420072206
0.205076320069
0.204777672397
0.204468562089
0.204151725335
0.203828745841
0.203501519254
0.20317259662
0.202842382104
0.202513460608
0.202190166149
0.201877634207
0.201577884072
0.201291740886
0.201020541867
0.200768859881
0.200542366182
0.200346946933
0.200179177495
0.200091159354
0.199929281898
0.199854163927
0.199690498599
7.71492890112e-105
7.71492890113e-105
7.71492890113e-105
7.71492890114e-105
7.71492890115e-105
7.71492890115e-105
7.71492890116e-105
7.71492890117e-105
7.71492890117e-105
7.71492890118e-105
7.71492890119e-105
7.71492890119e-105
7.7149289012e-105
7.71492890121e-105
7.71492890131e-105
7.71492890655e-105
7.71492920436e-105
7.71494610292e-105
7.7158667536e-105
7.76586102353e-105
8.35625583391e-105
5.19673490111e-08
0.264472552018
0.667701084742
0.433267450473
0.301094688425
0.243027805492
0.220308650917
0.212404906252
0.210085796679
0.2093878704
0.209115098751
0.208919927401
0.208739589666
0.208561509289
0.208325135495
0.208140603487
0.207949561629
0.20775224108
0.207548334679
0.207337579535
0.207118255403
0.206889528278
0.206650725377
0.206401471131
0.206141762729
0.205871428206
0.205590270385
0.205298420442
0.204996553513
0.204685555109
0.204367138056
0.204043072818
0.203715110562
0.203385475498
0.20305723514
0.202731879775
0.202412719534
0.202103191359
0.201805933732
0.201523964206
0.201259839971
0.201016364901
0.200796669001
0.2006037015
0.200440415746
0.200306947408
0.200204191821
0.200132725904
0.199990053266
7.71492889814e-105
7.71492889815e-105
7.71492889815e-105
7.71492889816e-105
7.71492889816e-105
7.71492889817e-105
7.71492889817e-105
7.71492889818e-105
7.71492889818e-105
7.71492889819e-105
7.7149288982e-105
7.7149288982e-105
7.71492889821e-105
7.71492889822e-105
7.71492889863e-105
7.71492892203e-105
7.71493026268e-105
7.71500464091e-105
7.71917132135e-105
7.81668633097e-105
3.58136887714e-38
2.61914081132e-05
0.543562705453
0.583004307783
0.379984126439
0.277484584022
0.234489398814
0.218221930071
0.212806669087
0.211235242737
0.210643230531
0.210335875702
0.210080816668
0.209841056224
0.209608078191
0.209322059513
0.209091658396
0.208858287517
0.208621794003
0.208381295223
0.208135295443
0.207882606986
0.207622205507
0.207354658388
0.207078030959
0.206791996897
0.206496502629
0.206191607713
0.205877755155
0.205555505051
0.20522609265
0.20489087133
0.204550669204
0.204207419145
0.203863876419
0.203523365805
0.203189371954
0.202863718922
0.202547677414
0.202244711497
0.201958712009
0.201692421775
0.201448478503
0.201228696041
0.201035110443
0.200870109033
0.200735618602
0.200632762703
0.200561865675
0.200428912385
7.71492889592e-105
7.71492889593e-105
7.71492889593e-105
7.71492889594e-105
7.71492889594e-105
7.71492889595e-105
7.71492889595e-105
7.71492889595e-105
7.71492889596e-105
7.71492889596e-105
7.71492889597e-105
7.71492889597e-105
7.71492889598e-105
7.714928896e-105
7.71492889746e-105
7.71492898079e-105
7.71493374987e-105
7.71519643645e-105
7.72990511199e-105
7.96258463789e-105
4.15590373677e-23
0.0377083762691
0.750863080146
0.513305123665
0.3427302428
0.262739585618
0.230254012445
0.218286528401
0.214415446919
0.213208149129
0.212689248185
0.212315117093
0.211977626857
0.211653938581
0.21133824943
0.211028307923
0.21072198494
0.210418682262
0.210061491632
0.209759577712
0.2094539837
0.209144546103
0.208829899324
0.208508853633
0.208181174841
0.207846493431
0.207504835224
0.207157627245
0.20680375073
0.20644411922
0.206079894292
0.205711679191
0.205340176319
0.204967838761
0.20459891961
0.204236920997
0.203883153183
0.203537180387
0.203201261715
0.202882122333
0.202584422889
0.202309820898
0.202057021228
0.201883367668
0.201681010958
0.201509872422
0.201371400128
0.201266481752
0.201196219274
0.201016653817
7.71492889421e-105
7.71492889421e-105
7.71492889422e-105
7.71492889422e-105
7.71492889422e-105
7.71492889423e-105
7.71492889423e-105
7.71492889423e-105
7.71492889424e-105
7.71492889424e-105
7.71492889424e-105
7.71492889425e-105
7.71492889425e-105
7.71492889432e-105
7.71492889827e-105
7.71492912324e-105
7.71494192148e-105
7.71564111526e-105
7.75398199535e-105
8.22544518327e-105
2.15598980367e-10
0.189824893361
0.697406649678
0.458850182019
0.31734904066
0.254029226483
0.228932924498
0.219938111508
0.217010973158
0.215959500886
0.215387255405
0.214915286729
0.214474172574
0.214047358136
0.213631735068
0.213224921123
0.212826496919
0.212434073968
0.212045348953
0.21165880793
0.211272954133
0.210886516586
0.210498228153
0.210108167727
0.209715638168
0.209318881952
0.208917764419
0.208511552592
0.208101379499
0.207688177932
0.207273770098
0.206860196173
0.206446819224
0.206035617169
0.205629741551
0.205232361291
0.204846187325
0.204472605715
0.204113066396
0.203770990792
0.203450337046
0.203154390174
0.202885734928
0.202645531595
0.202435000006
0.202256163956
0.202110835116
0.202000012752
0.201923944623
0.201798501008
7.71492889284e-105
7.71492889285e-105
7.71492889285e-105
7.71492889285e-105
7.71492889285e-105
7.71492889286e-105
7.71492889286e-105
7.71492889286e-105
7.71492889287e-105
7.71492889287e-105
7.71492889287e-105
7.71492889288e-105
7.71492889288e-105
7.71492889308e-105
7.71492890427e-105
7.7149295448e-105
7.7149654793e-105
7.71696273772e-105
7.7861250698e-105
1.17776324157e-38
1.84078949831e-06
0.3833193556
0.633149110208
0.415762214329
0.299435984023
0.249159355606
0.229515105108
0.222651955632
0.220335138091
0.21931367025
0.218643286005
0.218047361661
0.217481246271
0.216936053612
0.216406687685
0.215890024316
0.215384877209
0.214888805471
0.214399784842
0.213915405579
0.213435217954
0.212958257305
0.212484592649
0.212011407018
0.211537765933
0.211062691525
0.210586344235
0.210109171739
0.209634451074
0.209159873048
0.208686767063
0.208215188039
0.207748009142
0.207286553691
0.206834958662
0.206394213792
0.205967418636
0.205557800215
0.205167200048
0.204797496803
0.20445117508
0.204129687277
0.203892713883
0.203631888849
0.203405511807
0.203213619545
0.20305765136
0.202938789424
0.202857268296
0.20273230711
7.71492889173e-105
7.71492889174e-105
7.71492889174e-105
7.71492889174e-105
7.71492889174e-105
7.71492889175e-105
7.71492889175e-105
7.71492889175e-105
7.71492889175e-105
7.71492889176e-105
7.71492889176e-105
7.71492889176e-105
7.71492889177e-105
7.71492889234e-105
7.7149289244e-105
7.71493075194e-105
7.71503147269e-105
7.72064607148e-105
7.83769271931e-105
4.95951537831e-38
7.73631932236e-05
0.60106846598
0.57349976111
0.382428164184
0.286915213706
0.246920652204
0.231519678632
0.226152603828
0.224224857694
0.223224077088
0.222375622675
0.221645977563
0.220943949482
0.220264214517
0.219606477656
0.218966113868
0.218339728927
0.217725776689
0.217123826939
0.216533631016
0.21595107007
0.215375530706
0.214805228498
0.214238607611
0.213673847812
0.213111610892
0.212553409238
0.211997551465
0.211500377684
0.210949674646
0.210404729677
0.209866820885
0.209340423706
0.208823558641
0.208318455175
0.207827804601
0.20735417746
0.206900499805
0.206469109086
0.206062712177
0.205683427984
0.205334774833
0.20501925617
0.204738582846
0.204494429708
0.204287863303
0.204119958733
0.203991457858
0.203902953673
0.203775979873
7.71492889082e-105
7.71492889082e-105
7.71492889082e-105
7.71492889082e-105
7.71492889083e-105
7.71492889083e-105
7.71492889083e-105
7.71492889083e-105
7.71492889084e-105
7.71492889084e-105
7.71492889084e-105
7.71492889084e-105
7.71492889087e-105
7.71492889254e-105
7.71492898754e-105
7.71493439655e-105
7.71523078438e-105
7.73168261523e-105
7.98397126034e-105
5.19521568652e-23
0.0449293025527
0.750654168411
0.51936687981
0.355789315894
0.278434889746
0.246624425148
0.234548792159
0.230310241264
0.228574452397
0.227495391843
0.226568747905
0.22569377471
0.224847797018
0.224029400758
0.223235710972
0.222462962499
0.221709119604
0.220970699888
0.220246782473
0.2195384165
0.218842411547
0.21815539654
0.217476516021
0.21680696311
0.216145921453
0.215491223674
0.214843062271
0.214201285249
0.213564547592
0.212935243933
0.212316265774
0.211708578749
0.211112710038
0.210529220997
0.209961361699
0.209413143133
0.208885756689
0.208438630677
0.207962045714
0.207517206986
0.207103354194
0.206723010229
0.20637924946
0.206073819209
0.205808357817
0.20558401667
0.205401780746
0.205262583024
0.205166504372
0.205037677627
7.71492889005e-105
7.71492889005e-105
7.71492889005e-105
7.71492889006e-105
7.71492889006e-105
7.71492889006e-105
7.71492889006e-105
7.71492889006e-105
7.71492889007e-105
7.71492889007e-105
7.71492889007e-105
7.71492889007e-105
7.71492889015e-105
7.7149288944e-105
7.71492913413e-105
7.71494264367e-105
7.71567456644e-105
7.75534448083e-105
8.24102043663e-105
2.2215627994e-10
0.185485616009
0.704014406737
0.473303237829
0.335269231848
0.273134155498
0.247959443205
0.238506753849
0.234997183824
0.233369476619
0.232168009563
0.23108442507
0.230052048276
0.229054624331
0.228084975275
0.227142354172
0.226228247827
0.225335802716
0.224463114391
0.223612728799
0.222780122865
0.221963862846
0.221161152839
0.220369796188
0.21959107856
0.218825493688
0.218068012834
0.217379563889
0.216642870586
0.21591649937
0.215202294462
0.214503173619
0.213818317768
0.213147869107
0.212495236418
0.211865056856
0.211257460022
0.210675186847
0.210121226886
0.209598032001
0.209107037629
0.208651089645
0.208233033311
0.207854295823
0.207580796139
0.207290247462
0.207046860195
0.206849909411
0.206699477565
0.206595211426
0.206463363465
7.7149288894e-105
7.7149288894e-105
7.7149288894e-105
7.7149288894e-105
7.71492888941e-105
7.71492888941e-105
7.71492888941e-105
7.71492888941e-105
7.71492888941e-105
7.71492888941e-105
7.71492888942e-105
7.71492888942e-105
7.71492888964e-105
7.71492890194e-105
7.71492959891e-105
7.71496829815e-105
7.71709659092e-105
7.78914776355e-105
1.2459882326e-38
1.90496936124e-06
0.374652482312
0.643116419702
0.433311427955
0.320148840363
0.270574455484
0.250669930023
0.243255701861
0.240272037988
0.238603342542
0.23724432988
0.2359809659
0.234765337667
0.233594656684
0.232460481164
0.231359156284
0.230293798568
0.229256985177
0.228245430004
0.227254390842
0.226344533117
0.2253986369
0.224473219454
0.223563388253
0.222667955516
0.221791256387
0.220928974145
0.220078779156
0.219244318924
0.218427050512
0.217625866705
0.216840615643
0.216129923954
0.215383229392
0.214659310533
0.213959049193
0.213286618404
0.212645033997
0.21203578599
0.211462299216
0.210926237451
0.210429558723
0.209974421117
0.209563879244
0.209199989318
0.208885325417
0.208620658944
0.208406420312
0.208243073605
0.208130478448
0.207997286294
7.71492888884e-105
7.71492888884e-105
7.71492888884e-105
7.71492888884e-105
7.71492888885e-105
7.71492888885e-105
7.71492888885e-105
7.71492888885e-105
7.71492888885e-105
7.71492888886e-105
7.71492888886e-105
7.71492888887e-105
7.71492888954e-105
7.71492892722e-105
7.71493104839e-105
7.71504656973e-105
7.72140153812e-105
7.84899227825e-105
5.46570470191e-38
0.00010669457683
0.600561872257
0.583195434412
0.400459113647
0.309122247104
0.270120415028
0.254564195149
0.248635954951
0.245981768722
0.244213771397
0.242669916215
0.241211472489
0.239810339799
0.238453814761
0.237201950019
0.235933124738
0.234698337997
0.233500895617
0.232337236384
0.231203141741
0.230094130689
0.229014030401
0.227958221254
0.22692173249
0.225908065087
0.22497157426
0.223997349738
0.223042980854
0.222107869152
0.221190117107
0.220294247046
0.219421244826
0.21857127397
0.217745898568
0.21694358841
0.216232296
0.215494656878
0.214791985148
0.214123633639
0.213494367042
0.212908893554
0.212369430307
0.211876784063
0.211433246373
0.211040553412
0.210700152378
0.210413457488
0.210181483868
0.21000434939
0.209882538513
0.209747144153
7.71492888836e-105
7.71492888836e-105
7.71492888836e-105
7.71492888836e-105
7.71492888836e-105
7.71492888837e-105
7.71492888837e-105
7.71492888837e-105
7.71492888837e-105
7.71492888837e-105
7.71492888837e-105
7.71492888842e-105
7.71492889067e-105
7.71492901734e-105
7.71493612241e-105
7.7153199433e-105
7.73623274069e-105
8.03661731958e-105
6.3213970825e-17
0.0667554806167
0.749115808171
0.527071441566
0.374059538852
0.301627754903
0.271325572782
0.259335932208
0.254525751919
0.252008683374
0.250112222612
0.248377242554
0.246778633802
0.245181965804
0.243642337005
0.242149584825
0.240704750426
0.23930286399
0.237941774874
0.236619966812
0.235390891095
0.234136681787
0.232910111498
0.231715047417
0.230547967607
0.229403989802
0.228291332074
0.227201527494
0.226192297684
0.225150245156
0.224133841889
0.22314204201
0.222174306046
0.221236485553
0.220328507366
0.219452518251
0.218609827268
0.217800813375
0.217093386736
0.216366919119
0.215685680826
0.215051681744
0.214466979881
0.213932976903
0.213452038576
0.213026415411
0.212658307229
0.212349433926
0.21209964192
0.211909330773
0.211778315072
0.211640982882
7.71492888794e-105
7.71492888794e-105
7.71492888794e-105
7.71492888794e-105
7.71492888794e-105
7.71492888794e-105
7.71492888795e-105
7.71492888795e-105
7.71492888795e-105
7.71492888795e-105
7.71492888795e-105
7.71492888807e-105
7.71492889431e-105
7.71492924009e-105
7.71494833908e-105
7.71596408474e-105
7.76933519468e-105
8.39224638513e-105
3.81796626098e-08
0.238437599342
0.692337587402
0.477923700848
0.353889721933
0.29749730679
0.27423620879
0.26494307378
0.260885943502
0.25841662097
0.256340445033
0.254398977392
0.252535468413
0.250741060619
0.24900256124
0.247324785782
0.245752725779
0.244177725545
0.242650097816
0.241162519172
0.239720568549
0.238316705791
0.237006809796
0.235669110357
0.234366832423
0.233097558757
0.231857277482
0.230642274536
0.229460985857
0.228307250281
0.227244615196
0.226149049647
0.225089594195
0.224063303891
0.223071572203
0.222113379088
0.221194375938
0.220318023382
0.219547485497
0.218761181633
0.218025216245
0.217340637145
0.216709347796
0.216133217953
0.215615498463
0.215158977606
0.214764872162
0.214433214691
0.214164759526
0.213959976487
0.213818836962
0.213679061125
7.71492888757e-105
7.71492888757e-105
7.71492888757e-105
7.71492888757e-105
7.71492888757e-105
7.71492888757e-105
7.71492888758e-105
7.71492888758e-105
7.71492888758e-105
7.71492888758e-105
7.71492888759e-105
7.71492888805e-105
7.71492891348e-105
7.71493032879e-105
7.71500689419e-105
7.71915868074e-105
7.81975827127e-105
3.1711071837e-38
1.53732576598e-05
0.474133502938
0.624749137418
0.437311799982
0.339348988728
0.296380659245
0.278540032345
0.271271171455
0.267660251595
0.265085475389
0.262793438339
0.260614248742
0.258524288307
0.256567045083
0.254626237278
0.252749082482
0.250938623861
0.24918121117
0.247538387622
0.245886380604
0.244284874708
0.24272338416
0.241207676424
0.239727690703
0.23835140178
0.236948991491
0.235580810334
0.234246202509
0.232948920258
0.231684674919
0.230513297525
0.229316491472
0.228159259925
0.227039960559
0.225960205065
0.224920373724
0.223922861952
0.222975535981
0.222144049922
0.221294964212
0.220502710042
0.219766886117
0.219089608154
0.218473774232
0.217921384409
0.217432596369
0.217009946047
0.216654050693
0.216365737677
0.216146477286
0.215995183147
0.215852608658
7.71492888724e-105
7.71492888724e-105
7.71492888724e-105
7.71492888725e-105
7.71492888725e-105
7.71492888725e-105
7.71492888725e-105
7.71492888725e-105
7.71492888725e-105
7.71492888725e-105
7.71492888729e-105
7.71492888909e-105
7.71492898864e-105
7.71493448225e-105
7.71522722682e-105
7.73095861589e-105
7.97775240799e-105
3.77929063622e-23
0.026770680817
0.734205254324
0.558942106502
0.404858214168
0.329731883681
0.297408571619
0.283957726157
0.278081088382
0.274711704745
0.271974460397
0.269448722883
0.26709366106
0.264771202582
0.262540270806
0.260381721844
0.258361666638
0.256347902556
0.254402815804
0.252523139572
0.250699422217
0.248991441452
0.247276550677
0.245611368855
0.243988221595
0.242409398124
0.240938010854
0.239439554618
0.237983728702
0.236569683484
0.235192717656
0.233852517015
0.232624718208
0.231365261019
0.230154763136
0.228989125743
0.227867951897
0.226792233241
0.225771090234
0.22487457729
0.22396675841
0.223117989333
0.222328209771
0.221600625105
0.220939772035
0.220349276727
0.219831745784
0.219383292109
0.219004222775
0.218696609731
0.218462742984
0.21830162803
0.218156236286
7.71492888695e-105
7.71492888695e-105
7.71492888695e-105
7.71492888696e-105
7.71492888696e-105
7.71492888696e-105
7.71492888696e-105
7.71492888696e-105
7.71492888696e-105
7.71492888696e-105
7.71492888708e-105
7.71492889356e-105
7.71492924753e-105
7.7149485228e-105
7.71596081255e-105
7.76838537439e-105
8.37980348318e-105
9.04852932175e-09
0.212718636715
0.707883938044
0.502159601478
0.380577005524
0.324381397518
0.300411182073
0.290256679593
0.285290784289
0.281940556391
0.279066137708
0.276299531408
0.273648338619
0.271103048078
0.26870363895
0.266338328457
0.264051090987
0.261906081574
0.25977380194
0.257708952961
0.255712008294
0.253835421087
0.251956901351
0.250134181172
0.248364836357
0.246648510417
0.245043381587
0.243416280902
0.241838166211
0.240306920083
0.23881904091
0.237439219261
0.23604137162
0.234691894691
0.233389924202
0.232134661207
0.230934929847
0.229787093524
0.22876391922
0.22773246271
0.226762712276
0.225856130395
0.225016378618
0.224243920574
0.22354359181
0.222917314872
0.222366094528
0.221887409687
0.22155213529
0.221223134953
0.220972842707
0.220799796294
0.220651445033
7.71492888669e-105
7.71492888669e-105
7.71492888669e-105
7.7149288867e-105
7.7149288867e-105
7.7149288867e-105
7.7149288867e-105
7.7149288867e-105
7.7149288867e-105
7.71492888671e-105
7.71492888731e-105
7.7149289197e-105
7.71493069241e-105
7.7150249596e-105
7.72004815653e-105
7.83304409621e-105
3.78803079555e-38
2.30755127166e-05
0.482064881399
0.631996612537
0.456242674638
0.363995032575
0.322888534515
0.305181145751
0.297297333923
0.292893777342
0.289417447159
0.286235667076
0.28321513258
0.280373065945
0.277587578273
0.274911267098
0.272388654146
0.269901962526
0.267496440272
0.26524091288
0.262995581651
0.260826752411
0.258721140757
0.256749410596
0.254773977856
0.252853169343
0.250992167353
0.249249208066
0.247494241912
0.245794349665
0.244141292912
0.242542316268
0.24106270847
0.239559648845
0.238114489151
0.236723721589
0.235388152842
0.234108185336
0.23295530931
0.231794788559
0.230700041808
0.229671026368
0.228709145818
0.227820285224
0.227004512253
0.226262752495
0.225671669355
0.225085241988
0.224580244351
0.224154810264
0.223809884604
0.22354605878
0.223363296911
0.223213124209
7.71492888646e-105
7.71492888646e-105
7.71492888646e-105
7.71492888646e-105
7.71492888646e-105
7.71492888646e-105
7.71492888647e-105
7.71492888647e-105
7.71492888647e-105
7.71492888652e-105
7.71492888949e-105
7.71492905069e-105
7.71493780398e-105
7.71539675841e-105
7.73947363917e-105
8.07535735977e-105
9.69069740657e-17
0.0652051592765
0.750008354412
0.560465764325
0.421328770991
0.353825242436
0.324203313376
0.311179869616
0.304827273025
0.300592946951
0.296931718932
0.293559278115
0.290276432484
0.287130211445
0.284162957002
0.281248129725
0.278508508912
0.27581406074
0.273215222333
0.270773326023
0.268349598272
0.266010822308
0.263740202348
0.261610796024
0.259484709211
0.257425067527
0.255420711437
0.253550893412
0.251664980727
0.24984030862
0.248071466577
0.246429007561
0.244771425208
0.243168185991
0.241629840256
0.240149342719
0.238799004129
0.237440021333
0.236148131885
0.234922508224
0.233765257403
0.232679209969
0.231665363292
0.230801513028
0.229941068561
0.229160803654
0.228460206155
0.227842229783
0.227310433179
0.226862828937
0.22650001819
0.226222189129
0.226028907271
0.225875300039
7.71492888625e-105
7.71492888625e-105
7.71492888625e-105
7.71492888625e-105
7.71492888625e-105
7.71492888625e-105
7.71492888625e-105
7.71492888626e-105
7.71492888626e-105
7.71492888654e-105
7.71492890159e-105
7.71492971804e-105
7.71497320612e-105
7.71725690081e-105
7.79493593269e-105
1.0925328222e-38
1.05986483677e-06
0.312744503749
0.686506125063
0.501392884718
0.397183484657
0.349052548627
0.3278905251
0.318108711535
0.312609497721
0.308347572287
0.304515459847
0.300828219735
0.297353054295
0.293962073853
0.290764385413
0.287632769871
0.284618876734
0.281779638891
0.278979987163
0.276283348659
0.273741104658
0.271230973187
0.268802698645
0.266521324957
0.264241323624
0.262039142244
0.259974868399
0.257899786847
0.255895881535
0.253953224784
0.25214229355
0.250322568816
0.24856551471
0.246869034849
0.245231516798
0.243736649302
0.242231737914
0.240796597832
0.239432338641
0.238140300783
0.236917248123
0.235852008351
0.234785725391
0.233802527593
0.232900415067
0.232081291908
0.231349871047
0.230705142612
0.230146975752
0.22967547629
0.229373227867
0.229080041687
0.228876213692
0.228719063256
7.71492888606e-105
7.71492888606e-105
7.71492888606e-105
7.71492888606e-105
7.71492888606e-105
7.71492888606e-105
7.71492888606e-105
7.71492888606e-105
7.7149288861e-105
7.71492888784e-105
7.71492898165e-105
7.71493403247e-105
7.71519708111e-105
7.72892303377e-105
7.95162547241e-105
1.68939393646e-23
0.00523291341412
0.647245600012
0.604428642017
0.456889377633
0.382197179181
0.348619351133
0.333406841897
0.325736553618
0.320585716804
0.316158116348
0.312077541689
0.30812578422
0.304401066503
0.300774002543
0.297346856778
0.294001630545
0.29077812182
0.287746126616
0.284755511633
0.281944889502
0.279164420339
0.276480571957
0.273956237446
0.271448757252
0.26902633129
0.266756790209
0.264485591514
0.262290783362
0.26016611743
0.258181420604
0.256189112568
0.25426815575
0.252412228273
0.250699322662
0.248977468685
0.247326520212
0.245746549637
0.244234056031
0.242878614613
0.24151999781
0.24024119196
0.239042651937
0.237927154096
0.236897123898
0.235952558832
0.235178147568
0.234412025444
0.23373832587
0.233155442908
0.232664035301
0.232265909843
0.231960172769
0.231745645517
0.231585840038
7.71492888588e-105
7.71492888588e-105
7.71492888589e-105
7.71492888589e-105
7.71492888589e-105
7.71492888589e-105
7.71492888589e-105
7.71492888589e-105
7.71492888607e-105
7.71492889551e-105
7.71492939739e-105
7.7149560718e-105
7.71633527353e-105
7.78101273352e-105
1.82583260439e-39
7.1877255547e-08
0.226216950229
0.717606880588
0.534340002124
0.42585962675
0.374440461502
0.351170549374
0.34009482826
0.33359188015
0.328490061341
0.323898257892
0.319487041021
0.315336563799
0.311312027707
0.307511391016
0.303871594478
0.300314883373
0.296891511515
0.293668960332
0.29049562029
0.287510598882
0.284567731254
0.281724686467
0.279049396226
0.27639770466
0.273834832981
0.271424880315
0.269022738967
0.266698087107
0.264530928797
0.262363609732
0.260271203022
0.258250549347
0.256377046534
0.254499101894
0.252696073971
0.250966115053
0.24939309803
0.247814507604
0.246312559446
0.244895664182
0.24356280246
0.242312915249
0.24123635085
0.240162269213
0.239181061466
0.238292004512
0.23749633335
0.236794675749
0.236188223417
0.235677427007
0.235260193294
0.23502467168
0.234796452225
0.234632555535
7.71492888572e-105
7.71492888573e-105
7.71492888573e-105
7.71492888573e-105
7.71492888573e-105
7.71492888573e-105
7.71492888573e-105
7.71492888576e-105
7.71492888726e-105
7.71492896703e-105
7.71493318976e-105
7.71515013922e-105
7.72630933439e-105
7.91722013065e-105
8.20745540673e-38
0.00055017971502
0.580603827752
0.628402869548
0.482512214945
0.407231436918
0.372448793378
0.356164511938
0.347512573037
0.341522756068
0.336355089824
0.331516614744
0.326851194026
0.322452103373
0.318178602088
0.314148440175
0.310289510572
0.306529078215
0.302985586311
0.299515121772
0.29616947874
0.293024531253
0.289916413217
0.286995774269
0.284106891873
0.281317820411
0.278692106579
0.276085599433
0.273566530479
0.271206097617
0.268849666138
0.266573257062
0.264452124449
0.262331002735
0.260290455251
0.258328515061
0.25652860083
0.254723533561
0.253001251708
0.251361380419
0.249804141285
0.248418063466
0.247031862772
0.245736042517
0.244531469086
0.243420580891
0.242402802875
0.241573765261
0.240747249758
0.240020094508
0.239391193276
0.238860878775
0.238429473492
0.238095599222
0.237858250457
0.237690543501
7.71492888558e-105
7.71492888558e-105
7.71492888558e-105
7.71492888558e-105
7.71492888558e-105
7.71492888558e-105
7.71492888559e-105
7.71492888579e-105
7.71492889657e-105
7.71492946314e-105
7.71495915306e-105
7.71647333322e-105
7.78428454157e-105
2.38996037653e-39
7.28050283255e-08
0.220741596244
0.725347299337
0.552273690493
0.447909724065
0.397613563866
0.374255906929
0.362504556535
0.355265506972
0.349369077376
0.344009599344
0.338930241992
0.334021671467
0.329388544719
0.324962570126
0.320661543958
0.316600559234
0.312639410614
0.308910224687
0.305253382428
0.301823284399
0.298442122557
0.295268486178
0.29212826672
0.289104226031
0.28626143233
0.283438977981
0.280791645027
0.27815714752
0.275614136548
0.273155896957
0.270863234257
0.26856807287
0.266360071024
0.264323635367
0.262278746146
0.260319176117
0.258442236836
0.256738840246
0.255034087213
0.253421347944
0.251898589677
0.250467087942
0.249126705941
0.24797446896
0.246826842529
0.245779271717
0.244832628709
0.243982866936
0.243231777775
0.242582682091
0.242034026216
0.241678750032
0.241329840997
0.241081170008
0.240908765563
7.71492888544e-105
7.71492888544e-105
7.71492888545e-105
7.71492888545e-105
7.71492888545e-105
7.71492888545e-105
7.71492888549e-105
7.71492888773e-105
7.71492900433e-105
7.71493507024e-105
7.71524117698e-105
7.73059795786e-105
7.97327588688e-105
1.96783585454e-23
0.0041099453959
0.606342652422
0.633074453949
0.497595565663
0.427780325308
0.394916730623
0.378871502823
0.369731599919
0.362963485294
0.356995486933
0.351404673629
0.346088942555
0.340953487068
0.336111251192
0.331479368339
0.326979223676
0.32273807227
0.318672738311
0.314702800735
0.310963783105
0.307289043813
0.303838645853
0.300440656454
0.297166491077
0.294093086033
0.291050556147
0.288198426717
0.285362599243
0.282624879532
0.280064481422
0.277511329897
0.275047080569
0.272761575632
0.27047186825
0.268271732063
0.266156842238
0.264224045085
0.262283721538
0.260434928532
0.258675485649
0.257103368873
0.255528628218
0.254050057798
0.252669441722
0.25139182953
0.250208932208
0.249228298922
0.248248770887
0.24737393735
0.246601077542
0.245932878619
0.245368698842
0.244907586289
0.244548455961
0.244289434594
0.244113379766
7.71492888532e-105
7.71492888532e-105
7.71492888532e-105