/*--------------------------------*- C++ -*----------------------------------*\
| =========                 |                                                 |
| \\      /  F ield         | foam-extend: Open Source CFD                    |
|  \\    /   O peration     | Version:     4.1                                |
|   \\  /    A nd           | Web:         http://www.foam-extend.org         |
|    \\/     M anipulation  |                                                 |
\*---------------------------------------------------------------------------*/
FoamFile
{
    version     2.0;
    format      ascii;
    class       volScalarField;
    location    "0.001";
    object      N2;
}
// * * * * * * * * * * * * * * * * * * * * * * * * * * * * * * * * * * * * * //

dimensions      [0 0 0 0 0 0 0];

internalField   nonuniform List<scalar> 
8400
(
0.767082
0.767082
0.767082
0.767082
0.767082
0.767082
0.767082
0.767082
0.767082
0.767082
0.767082
0.767082
0.767082
0.767082
0.767082
0.767082
0.767082
0.767082
0.767082
0.767082
0.767082
0.767082
0.766511469137
0.622126909766
0.000655723612649
2.64007590803e-05
6.54391207753e-06
3.27466467123e-06
2.42815327816e-06
2.16469246789e-06
2.07923284109e-06
2.04952851577e-06
2.03407458793e-06
2.02292829039e-06
2.0134300638e-06
2.00484600144e-06
1.99688218883e-06
1.98945030807e-06
1.98234555329e-06
1.97546029253e-06
1.96870186442e-06
1.96199337305e-06
1.95526170265e-06
1.94844085259e-06
1.94158516955e-06
1.93456845642e-06
1.92732569747e-06
1.91982123546e-06
1.91200009866e-06
1.90554768045e-06
1.89715971394e-06
1.88861045695e-06
1.87979361601e-06
1.87073695118e-06
1.86148413001e-06
1.85217484673e-06
1.84289227822e-06
1.83363535586e-06
1.82449804332e-06
1.81558659619e-06
1.80709638523e-06
1.79907443047e-06
1.79159569437e-06
1.78476838047e-06
1.77869478183e-06
1.77346814023e-06
1.76921808686e-06
1.7659743786e-06
1.76373196238e-06
1.75888674164e-06
0.767082
0.767082
0.767082
0.767082
0.767082
0.767082
0.767082
0.767082
0.767082
0.767082
0.767082
0.767082
0.767082
0.767082
0.767082
0.767082
0.767082
0.767082
0.767082
0.767082
0.767082
0.767082
0.75560794856
0.334400363003
0.000115336157372
1.34302093071e-05
4.48906472034e-06
2.68747598437e-06
2.18171646708e-06
2.02830012752e-06
1.98460177345e-06
1.96807463255e-06
1.96004103906e-06
1.95335150114e-06
1.94690899242e-06
1.94049524625e-06
1.93239791261e-06
1.92597556081e-06
1.91943645404e-06
1.91278279629e-06
1.90600010903e-06
1.89906950162e-06
1.89211828483e-06
1.88495381507e-06
1.87755808042e-06
1.86991315965e-06
1.86200123221e-06
1.85395728778e-06
1.8456240938e-06
1.83700065523e-06
1.8281004264e-06
1.81900696139e-06
1.80978219838e-06
1.80038695363e-06
1.79087036841e-06
1.78132211961e-06
1.77195792357e-06
1.76269199173e-06
1.75362818777e-06
1.74487267685e-06
1.73660044013e-06
1.72882763021e-06
1.72161194196e-06
1.71506210291e-06
1.70927764395e-06
1.70433804862e-06
1.7003589342e-06
1.69731627251e-06
1.69521405909e-06
1.69126416262e-06
0.767082
0.767082
0.767082
0.767082
0.767082
0.767082
0.767082
0.767082
0.767082
0.767082
0.767082
0.767082
0.767082
0.767082
0.767082
0.767082
0.767082
0.767082
0.767082
0.767082
0.767082
0.767077405481
0.727849175014
0.00561958216108
3.77467211978e-05
7.57191751685e-06
3.35607057377e-06
2.34454430839e-06
2.05031772976e-06
1.96406321687e-06
1.94083475344e-06
1.93339921175e-06
1.92892107981e-06
1.92493026475e-06
1.9191511851e-06
1.9147926586e-06
1.91014644076e-06
1.90522584983e-06
1.90004486104e-06
1.89471834375e-06
1.88910238982e-06
1.88318471257e-06
1.87694710905e-06
1.87037918812e-06
1.86352308035e-06
1.85642774163e-06
1.84898890673e-06
1.84122146554e-06
1.83150052699e-06
1.82312456294e-06
1.8144890656e-06
1.80559700584e-06
1.79649524372e-06
1.78725562467e-06
1.77809021834e-06
1.7688745086e-06
1.75968391877e-06
1.75063134828e-06
1.74195951611e-06
1.73366029709e-06
1.72573904089e-06
1.71824752909e-06
1.71130620984e-06
1.70510842297e-06
1.69976882562e-06
1.69519033871e-06
1.69280862656e-06
1.68844628706e-06
1.68643721941e-06
1.68292215458e-06
0.767082
0.767082
0.767082
0.767082
0.767082
0.767082
0.767082
0.767082
0.767082
0.767082
0.767082
0.767082
0.767082
0.767082
0.767082
0.767082
0.767082
0.767082
0.767082
0.767082
0.767082
0.761660144367
0.501476910511
0.000240379797252
1.81927028585e-05
5.19781533549e-06
2.82901055423e-06
2.2008780756e-06
2.01343271569e-06
1.96119102313e-06
1.94539673619e-06
1.9391967116e-06
1.93458229087e-06
1.93024689589e-06
1.92590807149e-06
1.91974337574e-06
1.91504227142e-06
1.9100845915e-06
1.90487131736e-06
1.89942709276e-06
1.89379727434e-06
1.88785511739e-06
1.88158022207e-06
1.87495626199e-06
1.86797407913e-06
1.86071007378e-06
1.85315343359e-06
1.84524104466e-06
1.83698143752e-06
1.82839695854e-06
1.81961120832e-06
1.81062702925e-06
1.80145154732e-06
1.79213960828e-06
1.78280373952e-06
1.77360713788e-06
1.76447936159e-06
1.75551378138e-06
1.74680597994e-06
1.73854073754e-06
1.73072272357e-06
1.72340050398e-06
1.71665412418e-06
1.71056803903e-06
1.70522127496e-06
1.70076674865e-06
1.69713275957e-06
1.69434406781e-06
1.69241936361e-06
1.6893373716e-06
0.767082
0.767082
0.767082
0.767082
0.767082
0.767082
0.767082
0.767082
0.767082
0.767082
0.767082
0.767082
0.767082
0.767082
0.767082
0.767082
0.767082
0.767082
0.767082
0.767082
0.767082
0.754383989949
0.222598139288
7.86289714467e-05
1.11482634081e-05
4.09777662754e-06
2.58923846186e-06
2.16260031301e-06
2.03442948463e-06
1.99796416154e-06
1.98346652119e-06
1.97564294922e-06
1.96900809939e-06
1.96273852139e-06
1.95655729458e-06
1.94868054397e-06
1.94240908365e-06
1.93602937065e-06
1.9295703433e-06
1.9229245802e-06
1.91605306128e-06
1.908924645e-06
1.90151274329e-06
1.89396953042e-06
1.88611805762e-06
1.87794498347e-06
1.86945103926e-06
1.8606588057e-06
1.85171124509e-06
1.84248799347e-06
1.83302628231e-06
1.82336833284e-06
1.81365925382e-06
1.80388632581e-06
1.79408881547e-06
1.78435864892e-06
1.77488196667e-06
1.76570754359e-06
1.75680506825e-06
1.74827152213e-06
1.74020989364e-06
1.73280107369e-06
1.72602818963e-06
1.71993004899e-06
1.71456480474e-06
1.70999572297e-06
1.70627352533e-06
1.70342967265e-06
1.70147696016e-06
1.69855308774e-06
0.767082
0.767082
0.767082
0.767082
0.767082
0.767082
0.767082
0.767082
0.767082
0.767082
0.767082
0.767082
0.767082
0.767082
0.767082
0.767082
0.767082
0.767082
0.767082
0.767082
0.767077294102
0.72711987483
0.00571506064294
3.85670899823e-05
7.86679314713e-06
3.53158252784e-06
2.49137503551e-06
2.18322394921e-06
2.08947982848e-06
2.05967198048e-06
2.04602872677e-06
2.03571871512e-06
2.02620092494e-06
2.01696843514e-06
2.0080502171e-06
1.99921886809e-06
1.99041979169e-06
1.98163182654e-06
1.9712532266e-06
1.96253171263e-06
1.95365015017e-06
1.94459813795e-06
1.93540052966e-06
1.92606354304e-06
1.91648503201e-06
1.90665679158e-06
1.89660357921e-06
1.88649938175e-06
1.87616742578e-06
1.86563586782e-06
1.8549610578e-06
1.84431616285e-06
1.83356807423e-06
1.82278665084e-06
1.81211420227e-06
1.80173854048e-06
1.79158250154e-06
1.78166225953e-06
1.77205840791e-06
1.76307611785e-06
1.75467574558e-06
1.74691020413e-06
1.73977473288e-06
1.73486923139e-06
1.72922564372e-06
1.72449412839e-06
1.72065976317e-06
1.71774864083e-06
1.7157881534e-06
1.71149945644e-06
0.767082
0.767082
0.767082
0.767082
0.767082
0.767082
0.767082
0.767082
0.767082
0.767082
0.767082
0.767082
0.767082
0.767082
0.767082
0.767082
0.767082
0.767082
0.767082
0.767082
0.765296745166
0.575970572611
0.000424765152357
2.31874576664e-05
6.18783942911e-06
3.24927041978e-06
2.48340485509e-06
2.24995209104e-06
2.17544672286e-06
2.1471695147e-06
2.13068947232e-06
2.11660356171e-06
2.10324612155e-06
2.09046016883e-06
2.07793542711e-06
2.06560743369e-06
2.05361861046e-06
2.04181666827e-06
2.03006583042e-06
2.01834719666e-06
2.00676476732e-06
1.99511318068e-06
1.98335857545e-06
1.97159767127e-06
1.95982435205e-06
1.94788850581e-06
1.9357885227e-06
1.92367875525e-06
1.91145181058e-06
1.89911104597e-06
1.88678166357e-06
1.87458826925e-06
1.86239170608e-06
1.85025435337e-06
1.83843098109e-06
1.82687493779e-06
1.81563119775e-06
1.80476460179e-06
1.79446087759e-06
1.78466366172e-06
1.77547782913e-06
1.76699330809e-06
1.75935969318e-06
1.75258451778e-06
1.74665142658e-06
1.74161416082e-06
1.73751994967e-06
1.73439594976e-06
1.73225210159e-06
1.72938380304e-06
0.767082
0.767082
0.767082
0.767082
0.767082
0.767082
0.767082
0.767082
0.767082
0.767082
0.767082
0.767082
0.767082
0.767082
0.767082
0.767082
0.767082
0.767082
0.767082
0.767082
0.756735135199
0.382780093922
0.00014477058858
1.56726101725e-05
5.22339982767e-06
3.12258153184e-06
2.53368255385e-06
2.35051613155e-06
2.28752915238e-06
2.2572876958e-06
2.23621007791e-06
2.21728779556e-06
2.19914671786e-06
2.18180114942e-06
2.16497860979e-06
2.14850812482e-06
2.13260667136e-06
2.11693569408e-06
2.1014835201e-06
2.08634159097e-06
2.07128456172e-06
2.05633793602e-06
2.04165142691e-06
2.02694410209e-06
2.01222705697e-06
1.99763593631e-06
1.98298174356e-06
1.96830379187e-06
1.95387702612e-06
1.93943751901e-06
1.92503354908e-06
1.91089091071e-06
1.89687092691e-06
1.88302098875e-06
1.86965173002e-06
1.85662565657e-06
1.8440050828e-06
1.83198663398e-06
1.82061530269e-06
1.80985773464e-06
1.79978743511e-06
1.79053022672e-06
1.78373078667e-06
1.77627516378e-06
1.76979475014e-06
1.7643028354e-06
1.75983836356e-06
1.75643234672e-06
1.75409341594e-06
1.7512214917e-06
0.767082
0.767082
0.767082
0.767082
0.767082
0.767082
0.767082
0.767082
0.767082
0.767082
0.767082
0.767082
0.767082
0.767082
0.767082
0.767082
0.767082
0.767082
0.767082
0.767082
0.755081169202
0.165028736636
7.14487327852e-05
1.16061135917e-05
4.65440208946e-06
3.09337071067e-06
2.63032149178e-06
2.47988607525e-06
2.42290848523e-06
2.39062559352e-06
2.36203622759e-06
2.33721981415e-06
2.3135791074e-06
2.29063859211e-06
2.26869808795e-06
2.24733613666e-06
2.22659988061e-06
2.20635604568e-06
2.18654874977e-06
2.16732260051e-06
2.14830900132e-06
2.12972623483e-06
2.11134516697e-06
2.09312473705e-06
2.07517137417e-06
2.05727921961e-06
2.03967559796e-06
2.02224655814e-06
2.00662754089e-06
1.98958314928e-06
1.97273260749e-06
1.95613460179e-06
1.9400785674e-06
1.92431485106e-06
1.90899580244e-06
1.894278088e-06
1.88007196291e-06
1.86651171481e-06
1.85376699276e-06
1.84176358691e-06
1.83056853341e-06
1.82037664411e-06
1.81121731134e-06
1.80306677983e-06
1.79597415965e-06
1.78997289126e-06
1.78509448818e-06
1.78138775194e-06
1.77885081722e-06
1.77587291533e-06
0.767082
0.767082
0.767082
0.767082
0.767082
0.767082
0.767082
0.767082
0.767082
0.767082
0.767082
0.767082
0.767082
0.767082
0.767082
0.767082
0.767082
0.767082
0.767082
0.767076063154
0.720024877449
0.00543946787956
4.13656247098e-05
9.12472051642e-06
4.3270737e-06
3.13455307609e-06
2.76366139266e-06
2.63698954899e-06
2.58051294904e-06
2.54262995021e-06
2.50939131244e-06
2.47789876071e-06
2.44770784614e-06
2.41867275723e-06
2.3906860501e-06
2.36369701804e-06
2.33746665126e-06
2.31203920112e-06
2.28717583443e-06
2.26311152369e-06
2.23954384259e-06
2.21648910969e-06
2.19381949205e-06
2.17160758415e-06
2.14985071674e-06
2.12837114774e-06
2.10735871673e-06
2.08654741069e-06
2.06620124322e-06
2.04611105016e-06
2.02653137711e-06
2.00743464906e-06
1.98875151445e-06
1.97071586652e-06
1.95317211864e-06
1.93638240083e-06
1.92036237488e-06
1.90675028271e-06
1.89238927283e-06
1.87906293337e-06
1.86667297663e-06
1.85530177327e-06
1.84518124516e-06
1.83618765365e-06
1.8283690833e-06
1.82176043224e-06
1.81639026564e-06
1.81228371019e-06
1.80948338193e-06
1.80639159372e-06
0.767082
0.767082
0.767082
0.767082
0.767082
0.767082
0.767082
0.767082
0.767082
0.767082
0.767082
0.767082
0.767082
0.767082
0.767082
0.767082
0.767082
0.767082
0.767082
0.765261570107
0.580295688943
0.000498649534527
2.69452396017e-05
7.59437011296e-06
4.1655931911e-06
3.23757392043e-06
2.93539035126e-06
2.82086227552e-06
2.76263949554e-06
2.71709622181e-06
2.67558368928e-06
2.63617891578e-06
2.59854582523e-06
2.56229269627e-06
2.52726640253e-06
2.49374838587e-06
2.46124821549e-06
2.42969294098e-06
2.39931922699e-06
2.36968056367e-06
2.34104599249e-06
2.31297021114e-06
2.28561882044e-06
2.2588440201e-06
2.23280232022e-06
2.20720438449e-06
2.18412823482e-06
2.15959849776e-06
2.13566631111e-06
2.11223972483e-06
2.08958532453e-06
2.06743520302e-06
2.04606262578e-06
2.02527139441e-06
2.00546823612e-06
1.98643254896e-06
1.96831724572e-06
1.95125521576e-06
1.93514577668e-06
1.92018028426e-06
1.90637007746e-06
1.89371354841e-06
1.88229430178e-06
1.8741063491e-06
1.86545151125e-06
1.85818239395e-06
1.85229115155e-06
1.84778445923e-06
1.84465648355e-06
1.84135387583e-06
0.767082
0.767082
0.767082
0.767082
0.767082
0.767082
0.767082
0.767082
0.767082
0.767082
0.767082
0.767082
0.767082
0.767082
0.767082
0.767082
0.767082
0.767082
0.767082
0.756696016999
0.391435132269
0.000167715028997
1.88161154389e-05
6.66373202091e-06
4.13546594738e-06
3.39691696788e-06
3.1453410757e-06
3.03759329162e-06
2.97183311267e-06
2.91631379582e-06
2.86472347983e-06
2.81567663006e-06
2.76895751565e-06
2.72415925339e-06
2.68108096469e-06
2.63993476561e-06
2.60034411149e-06
2.56203654226e-06
2.5249289193e-06
2.4912496507e-06
2.45649063343e-06
2.4229138528e-06
2.39019385411e-06
2.35823921042e-06
2.32738089863e-06
2.29717651e-06
2.26780579598e-06
2.23917098099e-06
2.21141322154e-06
2.1844477129e-06
2.15822970609e-06
2.13471138026e-06
2.11021054128e-06
2.08666361096e-06
2.06405659411e-06
2.04251743331e-06
2.02216865703e-06
2.00287527048e-06
1.98498444028e-06
1.96827164223e-06
1.95286602453e-06
1.93890418199e-06
1.92631237386e-06
1.91515029249e-06
1.90559042237e-06
1.89759387631e-06
1.89111142151e-06
1.88615653846e-06
1.88272657406e-06
1.87931696085e-06
0.767082
0.767082
0.767082
0.767082
0.767082
0.767082
0.767082
0.767082
0.767082
0.767082
0.767082
0.767082
0.767082
0.767082
0.767082
0.767082
0.767082
0.767082
0.767082
0.755493948132
0.165532072138
8.05474664482e-05
1.40976169447e-05
6.09235072414e-06
4.20333582494e-06
3.61072600729e-06
3.3921487243e-06
3.28537185085e-06
3.20895641674e-06
3.14120114361e-06
3.07772252081e-06
3.01755188116e-06
2.96011670558e-06
2.9077490932e-06
2.85545170673e-06
2.80528059692e-06
2.75721450876e-06
2.7110430699e-06
2.66653905502e-06
2.62365139182e-06
2.58233624288e-06
2.54233477677e-06
2.50353763598e-06
2.46612187078e-06
2.43177772415e-06
2.39651157977e-06
2.36238668205e-06
2.32918590472e-06
2.29705752765e-06
2.26596484445e-06
2.23594060423e-06
2.20708795296e-06
2.17920058325e-06
2.15254123135e-06
2.12889105418e-06
2.10478538741e-06
2.0818412228e-06
2.0603563815e-06
2.04018235572e-06
2.02156451241e-06
2.00454293406e-06
1.98900594299e-06
1.97515471148e-06
1.96296617041e-06
1.95239760413e-06
1.94348869346e-06
1.93627397079e-06
1.93082533843e-06
1.92705586984e-06
1.92350686678e-06
0.767082
0.767082
0.767082
0.767082
0.767082
0.767082
0.767082
0.767082
0.767082
0.767082
0.767082
0.767082
0.767082
0.767082
0.767082
0.767082
0.767082
0.767082
0.767036963435
0.698458897872
0.00400916994178
4.54611548295e-05
1.12225645807e-05
5.77666725328e-06
4.34863885934e-06
3.87121380964e-06
3.67538700609e-06
3.56220527311e-06
3.47303672633e-06
3.39137931887e-06
3.3170928421e-06
3.24413830274e-06
3.17491615858e-06
3.10885569788e-06
3.04592271698e-06
2.98578395843e-06
2.92824603279e-06
2.87318166094e-06
2.82257470363e-06
2.77177653609e-06
2.7228159955e-06
2.67570304532e-06
2.6302363513e-06
2.58619020713e-06
2.54400807954e-06
2.50316333585e-06
2.46564739366e-06
2.42748043735e-06
2.3907136909e-06
2.35515042873e-06
2.32089651966e-06
2.28808744989e-06
2.25654892851e-06
2.22660733072e-06
2.19795480172e-06
2.17079678526e-06
2.1471481901e-06
2.12319840398e-06
2.10081496892e-06
2.08025268257e-06
2.06129982425e-06
2.04418118357e-06
2.02883879385e-06
2.01526286911e-06
2.00358627174e-06
1.99387393441e-06
1.98600265998e-06
1.9799833272e-06
1.97581078122e-06
1.97205797299e-06
0.767082
0.767082
0.767082
0.767082
0.767082
0.767082
0.767082
0.767082
0.767082
0.767082
0.767082
0.767082
0.767082
0.767082
0.767082
0.767082
0.767082
0.767082
0.762049636753
0.52745786296
0.000388100068958
2.88388855473e-05
9.48030530741e-06
5.6765553462e-06
4.58131501734e-06
4.18370849088e-06
3.9983067449e-06
3.87532203508e-06
3.76943121251e-06
3.67142703745e-06
3.5789762119e-06
3.49158079821e-06
3.40845848358e-06
3.32975615815e-06
3.25724588061e-06
3.18591842425e-06
3.1178705983e-06
3.05264466206e-06
2.99044998087e-06
2.93089680892e-06
2.87610026189e-06
2.82101964882e-06
2.76814730312e-06
2.71733174606e-06
2.66835003741e-06
2.62105795236e-06
2.57576360638e-06
2.53210107826e-06
2.4922648533e-06
2.45173907112e-06
2.41310478556e-06
2.37604880991e-06
2.34062493195e-06
2.30690704496e-06
2.27480738201e-06
2.24459518895e-06
2.21819436428e-06
2.19155635003e-06
2.16683520597e-06
2.14403977522e-06
2.12312248545e-06
2.10425103877e-06
2.08729685208e-06
2.0724492501e-06
2.05973207724e-06
2.0490191636e-06
2.04033048568e-06
2.03367732092e-06
2.02906619256e-06
2.02516438557e-06
0.767082
0.767082
0.767082
0.767082
0.767082
0.767082
0.767082
0.767082
0.767082
0.767082
0.767082
0.767082
0.767082
0.767082
0.767082
0.767082
0.767082
0.767082
0.754489831278
0.292017894218
0.000133269774426
2.01886603023e-05
8.46030892006e-06
5.75932046174e-06
4.89325838001e-06
4.55065674315e-06
4.36394891584e-06
4.22241046169e-06
4.09610135844e-06
3.97817383382e-06
3.86750064708e-06
3.76590451196e-06
3.66724685801e-06
3.57383798494e-06
3.4854744933e-06
3.40134367648e-06
3.3240767047e-06
3.24781730473e-06
3.17519082798e-06
3.10564038375e-06
3.03925816518e-06
2.97555254458e-06
2.91717988777e-06
2.85870042525e-06
2.80251386327e-06
2.74852687483e-06
2.69680196754e-06
2.64712986609e-06
2.60180615598e-06
2.55613476976e-06
2.51249842003e-06
2.47078545749e-06
2.43121885399e-06
2.39350741055e-06
2.35766579159e-06
2.32414761729e-06
2.29486916923e-06
2.26533527517e-06
2.23804785224e-06
2.21291259905e-06
2.18997078464e-06
2.16926820277e-06
2.15069738956e-06
2.13450984646e-06
2.12050859414e-06
2.10870861209e-06
2.0991406278e-06
2.0919353295e-06
2.08691926689e-06
2.0827783229e-06
0.767082
0.767082
0.767082
0.767082
0.767082
0.767082
0.767082
0.767082
0.767082
0.767082
0.767082
0.767082
0.767082
0.767082
0.767082
0.767082
0.767082
0.767077697175
0.737778010346
0.0299331699015
6.3594996013e-05
1.53316824875e-05
7.92783273141e-06
5.96835928389e-06
5.27831443086e-06
4.96619953349e-06
4.76956714589e-06
4.60505513896e-06
4.45499693888e-06
4.31812857639e-06
4.18652206957e-06
4.06307489784e-06
3.94636206025e-06
3.83963662938e-06
3.73555850724e-06
3.63707226067e-06
3.54391848773e-06
3.45533358482e-06
3.37389775288e-06
3.29371462934e-06
3.21728001522e-06
3.14413575605e-06
3.07427498864e-06
3.01019976936e-06
2.94613807303e-06
2.88490283624e-06
2.82637783009e-06
2.77028753825e-06
2.71654416484e-06
2.66789530775e-06
2.61890079535e-06
2.57245428459e-06
2.52830269117e-06
2.48635583665e-06
2.44667749202e-06
2.40950701077e-06
2.37702700749e-06
2.34467142698e-06
2.3146556815e-06
2.28701954991e-06
2.26177828033e-06
2.23902743347e-06
2.21872626369e-06
2.20113396438e-06
2.18589017495e-06
2.17300801426e-06
2.16263959401e-06
2.15475110715e-06
2.14925675724e-06
2.14486376157e-06
0.767082
0.767082
0.767082
0.767082
0.767082
0.767082
0.767082
0.767082
0.767082
0.767082
0.767082
0.767082
0.767082
0.767082
0.767082
0.767082
0.767082
0.762980457214
0.553119928791
0.00056114830866
3.69607302813e-05
1.25920422479e-05
7.75129091035e-06
6.30092899508e-06
5.73309467622e-06
5.43189654134e-06
5.2139223131e-06
5.02589324835e-06
4.84888862221e-06
4.6837290296e-06
4.52927496335e-06
4.38766925752e-06
4.25139912775e-06
4.1231969422e-06
4.00547506887e-06
3.89135667101e-06
3.78336011077e-06
3.68113903989e-06
3.58695175319e-06
3.49491274644e-06
3.40732179476e-06
3.32389289788e-06
3.24451864807e-06
3.1715678897e-06
3.09905864662e-06
3.02999386555e-06
2.96414571471e-06
2.90127493591e-06
2.84384258885e-06
2.78665760701e-06
2.73228325348e-06
2.6805839405e-06
2.63141871701e-06
2.58523061875e-06
2.54164631458e-06
2.50313532834e-06
2.46484260587e-06
2.42928921767e-06
2.39628499098e-06
2.36616594959e-06
2.33862286883e-06
2.31392102691e-06
2.29182463025e-06
2.27265355454e-06
2.25602055611e-06
2.24427704627e-06
2.23290767148e-06
2.2242698974e-06
2.21823049963e-06
2.21357566403e-06
0.767082
0.767082
0.767082
0.767082
0.767082
0.767082
0.767082
0.767082
0.767082
0.767082
0.767082
0.767082
0.767082
0.767082
0.767082
0.767082
0.767082
0.754370591205
0.284083988305
0.000148710907256
2.47027913223e-05
1.11380915359e-05
7.87203164222e-06
6.75780226258e-06
6.26040693785e-06
5.95540835494e-06
5.70560418283e-06
5.48037579833e-06
5.27248850668e-06
5.0827041577e-06
4.90211388126e-06
4.73344086883e-06
4.57874535858e-06
4.43052175895e-06
4.29068984362e-06
4.16298534645e-06
4.03886302833e-06
3.9218590125e-06
3.81100986195e-06
3.70926278423e-06
3.60964779065e-06
3.51499757446e-06
3.42516450389e-06
3.34257059885e-06
3.2611302091e-06
3.18368998007e-06
3.10978093719e-06
3.0395943047e-06
2.9757266279e-06
2.91206220046e-06
2.85183270851e-06
2.79480419231e-06
2.74088113956e-06
2.68997260367e-06
2.64463199196e-06
2.59974675329e-06
2.55797117451e-06
2.51907971287e-06
2.48312619834e-06
2.45033952641e-06
2.42040385283e-06
2.39359153685e-06
2.3721670109e-06
2.35117034544e-06
2.33318469323e-06
2.31801555164e-06
2.30570521293e-06
2.29635881749e-06
2.28980359326e-06
2.284900379e-06
0.767082
0.767082
0.767082
0.767082
0.767082
0.767082
0.767082
0.767082
0.767082
0.767082
0.767082
0.767082
0.767082
0.767082
0.767082
0.767082
0.767015993057
0.699985850515
0.0101835730293
6.60775605477e-05
1.85026935464e-05
1.0475805512e-05
8.19996241498e-06
7.31480426782e-06
6.85320281434e-06
6.52195845786e-06
6.23429072025e-06
5.97620366787e-06
5.73332053373e-06
5.50818971467e-06
5.30239048592e-06
5.10669296624e-06
4.92815819192e-06
4.7575313837e-06
4.59742324154e-06
4.45114098061e-06
4.30964611415e-06
4.17678151765e-06
4.05079314578e-06
3.93563112382e-06
3.82327272758e-06
3.71679438566e-06
3.61574015887e-06
3.52330153212e-06
3.43208591589e-06
3.34556997227e-06
3.26343317542e-06
3.18853005068e-06
3.11448886538e-06
3.04414092563e-06
2.97777858922e-06
2.91499967259e-06
2.85856672391e-06
2.80280311062e-06
2.75054699798e-06
2.70164677688e-06
2.65605410903e-06
2.61383051433e-06
2.57498299643e-06
2.54200100701e-06
2.50968181691e-06
2.48051744149e-06
2.45462041979e-06
2.4317820949e-06
2.41240204852e-06
2.39606408327e-06
2.38277791972e-06
2.37256829941e-06
2.36545594516e-06
2.36025252067e-06
0.767082
0.767082
0.767082
0.767082
0.767082
0.767082
0.767082
0.767082
0.767082
0.767082
0.767082
0.767082
0.767082
0.767082
0.767082
0.767082
0.757562499211
0.453260221564
0.000354617524527
3.7901038263e-05
1.53820769756e-05
1.03658481888e-05
8.7135134817e-06
7.96459572988e-06
7.50306292651e-06
7.13248813071e-06
6.80511930741e-06
6.50131156209e-06
6.22494499547e-06
5.96501804302e-06
5.72809436162e-06
5.50390736711e-06
5.29511488069e-06
5.10424793998e-06
4.92172347886e-06
4.75133226011e-06
4.59484162339e-06
4.44452549566e-06
4.30308516866e-06
4.17331900556e-06
4.0471170417e-06
3.92812598973e-06
3.81894428655e-06
3.71207417667e-06
3.61105804543e-06
3.51523795916e-06
3.42763495954e-06
3.34160534757e-06
3.26018413878e-06
3.18305138065e-06
3.11002703757e-06
3.04440481449e-06
2.97957266643e-06
2.91872642953e-06
2.8617430584e-06
2.80860231843e-06
2.75909104792e-06
2.71639084594e-06
2.67417969378e-06
2.63577238319e-06
2.60084672831e-06
2.56938832202e-06
2.54156299426e-06
2.51717627829e-06
2.49612140475e-06
2.47854491759e-06
2.46708986797e-06
2.4560425726e-06
2.44824663908e-06
2.44263856683e-06
0.767082
0.767082
0.767082
0.767082
0.767082
0.767082
0.767082
0.767082
0.767082
0.767082
0.767082
0.767082
0.767082
0.767082
0.767082
0.767080098524
0.757537904427
0.118681516781
0.000108178778515
2.59653400843e-05
1.39436987689e-05
1.06639765409e-05
9.38635571044e-06
8.70512621005e-06
8.21319178775e-06
7.79059828277e-06
7.41340062134e-06
7.06304408957e-06
6.74523955859e-06
6.44765180114e-06
6.17676948365e-06
5.92172840832e-06
5.68442448046e-06
5.46828177479e-06
5.26206006318e-06
5.0741457904e-06
4.8939342298e-06
4.72490253241e-06
4.57028336151e-06
4.42102827285e-06
4.28051570206e-06
4.15212382841e-06
4.02690335183e-06
3.90876361184e-06
3.79728120441e-06
3.69526470715e-06
3.59518657178e-06
3.50089336487e-06
3.41170668069e-06
3.33087667319e-06
3.25131325944e-06
3.17642416831e-06
3.10605099483e-06
3.03989079269e-06
2.98142036587e-06
2.92380308661e-06
2.87031658578e-06
2.82091498361e-06
2.77561296296e-06
2.73418321977e-06
2.69657992874e-06
2.66597423714e-06
2.63594750132e-06
2.60978812805e-06
2.5872581442e-06
2.56823537909e-06
2.5529453057e-06
2.54113234339e-06
2.53272764027e-06
2.52680694104e-06
0.767082
0.767082
0.767082
0.767082
0.767082
0.767082
0.767082
0.767082
0.767082
0.767082
0.767082
0.767082
0.767082
0.767082
0.767082
0.761079377456
0.539640821133
0.000752489955577
5.27136919078e-05
2.03834737141e-05
1.35000575041e-05
1.1228792468e-05
1.01786671321e-05
9.50612958749e-06
8.96281020935e-06
8.4865684445e-06
8.04804163793e-06
7.65293219252e-06
7.28567642659e-06
6.95273374423e-06
6.64592691596e-06
6.35755480817e-06
6.09018699992e-06
5.84699439423e-06
5.61581328723e-06
5.40519929175e-06
5.204273612e-06
5.01614814433e-06
4.84402819004e-06
4.67853274863e-06
4.52310478025e-06
4.38057532045e-06
4.24260039441e-06
4.11228771882e-06
3.99374057767e-06
3.87805760243e-06
3.76881382497e-06
3.66589691369e-06
3.57236800811e-06
3.48067029334e-06
3.3943918276e-06
3.31322684896e-06
3.24068734602e-06
3.16933707271e-06
3.10258688746e-06
3.04063269497e-06
2.98324075262e-06
2.93019453728e-06
2.88487431746e-06
2.84048648605e-06
2.80027877368e-06
2.76413346741e-06
2.73218606158e-06
2.70410193743e-06
2.68001438683e-06
2.65979496821e-06
2.64323737966e-06
2.63361807557e-06
2.62446791379e-06
2.61818391107e-06
0.767082
0.767082
0.767082
0.767082
0.767082
0.767082
0.767082
0.767082
0.767082
0.767082
0.767082
0.767082
0.767082
0.767082
0.767082
0.758230498448
0.18549877611
0.000147194986737
3.34985233171e-05
1.80028750245e-05
1.37404360244e-05
1.20321752075e-05
1.10702929873e-05
1.03623246292e-05
9.75851821663e-06
9.21635027096e-06
8.71799535967e-06
8.2691971582e-06
7.85323649973e-06
7.4769611921e-06
7.1316102336e-06
6.80809809166e-06
6.51450303645e-06
6.23776531148e-06
5.98059133407e-06
5.74670975471e-06
5.52348722474e-06
5.32035699438e-06
5.12574950747e-06
4.94345738014e-06
4.77658896908e-06
4.61599398066e-06
4.46482966518e-06
4.32695585835e-06
4.1928510634e-06
4.06674500974e-06
3.95172153171e-06
3.83962890595e-06
3.73424455647e-06
3.6350685047e-06
3.54573986925e-06
3.458127699e-06
3.3762053943e-06
3.29962980962e-06
3.22820034606e-06
3.16551451522e-06
3.10399183361e-06
3.04731904286e-06
2.99531964303e-06
2.94787942434e-06
2.90500847508e-06
2.87024238707e-06
2.83598856585e-06
2.80610208241e-06
2.78037723432e-06
2.75864020271e-06
2.74112446872e-06
2.72746638251e-06
2.71761683318e-06
2.71085971262e-06
0.767082
0.767082
0.767082
0.767082
0.767082
0.767082
0.767082
0.767082
0.767082
0.767082
0.767082
0.767082
0.767082
0.767082
0.761049669351
0.545101248496
0.000980347773604
6.42671680476e-05
2.55794550343e-05
1.72301664712e-05
1.43845386026e-05
1.29760174141e-05
1.20368826499e-05
1.12610705096e-05
1.05821450151e-05
9.97017755105e-06
9.40863025813e-06
8.90393230516e-06
8.44385272639e-06
8.0174761208e-06
7.63149806236e-06
7.27117963887e-06
6.94482876765e-06
6.63742810864e-06
6.35929663519e-06
6.09524807002e-06
5.85555912345e-06
5.62657289821e-06
5.41312787897e-06
5.21870798769e-06
5.03174483853e-06
4.86116188781e-06
4.69647557648e-06
4.54195407125e-06
4.39649833999e-06
4.26432711033e-06
4.13540587102e-06
4.0144128129e-06
3.90528444881e-06
3.7982928057e-06
3.6978930605e-06
3.60391838442e-06
3.52013120842e-06
3.43798985856e-06
3.36162275906e-06
3.29075031076e-06
3.22516539279e-06
3.16468772461e-06
3.11339630272e-06
3.06298473424e-06
3.01736989827e-06
2.97671179215e-06
2.94048527196e-06
2.90873535034e-06
2.88136079424e-06
2.8584164645e-06
2.84326761935e-06
2.82851154417e-06
2.81785158812e-06
2.81066706658e-06
0.767082
0.767082
0.767082
0.767082
0.767082
0.767082
0.767082
0.767082
0.767082
0.767082
0.767082
0.767082
0.767082
0.767079765163
0.758288713697
0.159709840907
0.00015938581952
3.96174578594e-05
2.24211804496e-05
1.74669318792e-05
1.53374778186e-05
1.40429491142e-05
1.30437913861e-05
1.21871961856e-05
1.14252627632e-05
1.07394148446e-05
1.01121868839e-05
9.55054266365e-06
9.03928685874e-06
8.56596263974e-06
8.13924670018e-06
7.7481867291e-06
7.38208288132e-06
7.0507569323e-06
6.7381627455e-06
6.45513871021e-06
6.18657616286e-06
5.93675423362e-06
5.70981274439e-06
5.49267040837e-06
5.29514994754e-06
5.10508027047e-06
4.92710568241e-06
4.76497680049e-06
4.60814491477e-06
4.46082802186e-06
4.32748900908e-06
4.19736973344e-06
4.07551623961e-06
3.96102654438e-06
3.85843996491e-06
3.7580480428e-06
3.6642973781e-06
3.57683153613e-06
3.4998811364e-06
3.42432964116e-06
3.35456521216e-06
3.29041102453e-06
3.23179981707e-06
3.17842440433e-06
3.13440606763e-06
3.09094990985e-06
3.05265943977e-06
3.01887029881e-06
2.9900247893e-06
2.96559442244e-06
2.94558289933e-06
2.93003961629e-06
2.91866071994e-06
2.9109552978e-06
0.767082
0.767082
0.767082
0.767082
0.767082
0.767082
0.767082
0.767082
0.767082
0.767082
0.767082
0.767082
0.767082
0.757303897265
0.479773903459
0.000698776863697
6.8499446651e-05
3.03893169135e-05
2.15351535886e-05
1.82532593014e-05
1.64559644977e-05
1.51650594667e-05
1.40774709944e-05
1.3126716972e-05
1.22774847151e-05
1.15150751297e-05
1.08287854949e-05
1.0200586707e-05
9.63754372908e-06
9.1248721767e-06
8.64926878547e-06
8.22145523422e-06
7.82815346325e-06
7.45980380568e-06
7.12636871745e-06
6.81164871456e-06
6.52626142779e-06
6.25525410704e-06
6.00323512925e-06
5.77433371031e-06
5.55524908988e-06
5.35661662288e-06
5.16486744296e-06
4.98531116458e-06
4.82269114284e-06
4.66470808562e-06
4.51688598766e-06
4.37803072209e-06
4.25323169003e-06
4.13119495874e-06
4.01705236485e-06
3.91077346115e-06
3.81592161402e-06
3.72327406999e-06
3.63724827388e-06
3.55740243643e-06
3.48834499678e-06
3.42045357873e-06
3.35841944455e-06