/*--------------------------------*- C++ -*----------------------------------*\
| =========                 |                                                 |
| \\      /  F ield         | foam-extend: Open Source CFD                    |
|  \\    /   O peration     | Version:     4.1                                |
|   \\  /    A nd           | Web:         http://www.foam-extend.org         |
|    \\/     M anipulation  |                                                 |
\*---------------------------------------------------------------------------*/
FoamFile
{
    version     2.0;
    format      ascii;
    class       volScalarField;
    location    "0.001";
    object      N2Plus;
}
// * * * * * * * * * * * * * * * * * * * * * * * * * * * * * * * * * * * * * //

dimensions      [0 0 0 0 0 0 0];

internalField   nonuniform List<scalar> 
8400
(
7.21720709246e-185
7.2172070925e-185
7.21720709253e-185
7.21720709257e-185
7.21720709261e-185
7.21720709265e-185
7.21720709269e-185
7.21720709272e-185
7.21720709276e-185
7.21720709279e-185
7.21720709283e-185
7.21720709286e-185
7.21720709289e-185
7.21720709293e-185
7.21720709296e-185
7.21720709304e-185
7.21720709614e-185
7.21720727019e-185
7.21721714381e-185
7.21775448579e-185
7.24728987523e-185
7.62754967125e-185
1.53538382891e-32
3.96622974825e-07
2.39021352189e-05
1.49403897925e-05
1.06364409489e-05
9.00864110945e-06
8.505715136e-06
8.34743283928e-06
8.28190383383e-06
8.24717551957e-06
8.22007378066e-06
8.19670552221e-06
8.17570897183e-06
8.15650248032e-06
8.13868661434e-06
8.12196040252e-06
8.10604678921e-06
8.0907216717e-06
8.07577713546e-06
8.06104000047e-06
8.0463490774e-06
8.03156012653e-06
8.01664055234e-06
8.00140947666e-06
7.9857554109e-06
7.96959733071e-06
7.95286197981e-06
7.93893804941e-06
7.92098715287e-06
7.90253547663e-06
7.88353013379e-06
7.86403802723e-06
7.84415443565e-06
7.82405707664e-06
7.80390741954e-06
7.78383533529e-06
7.76404436139e-06
7.74476066781e-06
7.72623880388e-06
7.70870949029e-06
7.69240414164e-06
7.67756354001e-06
7.66440919288e-06
7.65314217692e-06
7.64398153734e-06
7.63703672923e-06
7.63237304678e-06
7.62838881712e-06
7.21720707972e-185
7.21720707973e-185
7.21720707975e-185
7.21720707976e-185
7.21720707978e-185
7.21720707979e-185
7.21720707981e-185
7.21720707982e-185
7.21720707984e-185
7.21720707985e-185
7.21720707987e-185
7.21720707988e-185
7.21720707989e-185
7.21720707991e-185
7.21720707992e-185
7.21720708018e-185
7.2172070939e-185
7.21720787687e-185
7.21725145003e-185
7.21967501703e-185
7.29250615019e-185
1.81002168162e-71
4.63775569356e-18
7.90911652325e-06
1.96023441182e-05
1.2682110893e-05
9.59249811034e-06
8.54244914483e-06
8.23953713168e-06
8.15271437548e-06
8.12713626536e-06
8.1114274619e-06
8.10163378261e-06
8.0920897662e-06
8.08239486985e-06
8.0724700723e-06
8.0588593372e-06
8.04836590436e-06
8.03752806903e-06
8.02631056834e-06
8.01467422915e-06
8.00256825166e-06
7.99007143393e-06
7.97698407105e-06
7.96326382915e-06
7.94886705817e-06
7.93375739788e-06
7.91800375286e-06
7.9015029038e-06
7.88426581525e-06
7.86631484903e-06
7.84771967115e-06
7.82855957829e-06
7.80891569252e-06
7.78890990559e-06
7.7687173454e-06
7.74863896225e-06
7.72871063691e-06
7.70914351009e-06
7.6901670577e-06
7.6720192208e-06
7.65491059159e-06
7.63904895452e-06
7.62466499765e-06
7.6119608063e-06
7.60111544801e-06
7.59232776434e-06
7.58565398293e-06
7.5811531507e-06
7.5773986072e-06
7.21720707331e-185
7.21720707331e-185
7.21720707332e-185
7.21720707333e-185
7.21720707334e-185
7.21720707335e-185
7.21720707336e-185
7.21720707337e-185
7.21720707338e-185
7.21720707339e-185
7.2172070734e-185
7.2172070734e-185
7.21720707341e-185
7.21720707342e-185
7.21720707345e-185
7.21720707486e-185
7.21720715476e-185
7.21721172348e-185
7.21746291629e-185
7.23152647146e-185
7.45413577666e-185
1.10558404811e-46
1.20855720913e-08
2.73506970064e-05
1.60407226625e-05
1.09245713868e-05
8.90758169496e-06
8.2752214549e-06
8.1079195693e-06
8.06164000238e-06
8.05001423491e-06
8.04664023012e-06
8.04366995512e-06
8.04013485037e-06
8.03240227907e-06
8.02726094217e-06
8.02131601165e-06
8.01457717032e-06
8.00705225744e-06
7.99883874649e-06
7.98980073257e-06
7.97992278439e-06
7.96917890009e-06
7.95755090906e-06
7.94505358638e-06
7.9317107248e-06
7.91745836741e-06
7.90231101634e-06
7.88288853863e-06
7.86602632104e-06
7.84838939015e-06
7.83005819717e-06
7.81113554433e-06
7.79176381963e-06
7.77221875262e-06
7.7525036827e-06
7.73279276298e-06
7.71328915407e-06
7.69430630803e-06
7.6759865727e-06
7.65850064954e-06
7.64203058005e-06
7.62681696197e-06
7.61308052453e-06
7.60104357725e-06
7.59074426984e-06
7.58547669399e-06
7.57590972442e-06
7.57157346219e-06
7.56799230085e-06
7.21720706922e-185
7.21720706922e-185
7.21720706923e-185
7.21720706924e-185
7.21720706924e-185
7.21720706925e-185
7.21720706926e-185
7.21720706926e-185
7.21720706927e-185
7.21720706928e-185
7.21720706928e-185
7.21720706929e-185
7.21720706929e-185
7.2172070693e-185
7.2172070694e-185
7.21720707447e-185
7.21720736248e-185
7.21722370525e-185
7.21811407574e-185
7.26646403483e-185
7.83744076817e-185
3.76003342296e-22
2.05025045554e-06
2.15821334926e-05
1.36247112607e-05
9.92259584614e-06
8.5887082422e-06
8.20437426896e-06
8.1000493736e-06
8.07261908172e-06
8.06253322788e-06
8.05850131851e-06
8.05459973941e-06
8.05027854658e-06
8.04539410641e-06
8.03640532181e-06
8.0301390572e-06
8.02312328086e-06
8.0153303847e-06
8.00676191126e-06
7.99743886389e-06
7.98723817919e-06
7.97613124598e-06
7.96409534483e-06
7.95111589308e-06
7.93723988342e-06
7.92246670137e-06
7.90677527043e-06
7.8902002832e-06
7.87279727199e-06
7.8546613905e-06
7.83587953965e-06
7.81655806073e-06
7.79683208371e-06
7.7768942132e-06
7.75700207984e-06
7.73720044113e-06
7.71769253656e-06
7.69868061254e-06
7.6803963902e-06
7.66302192484e-06
7.64674582312e-06
7.63175817839e-06
7.61823823103e-06
7.60635104944e-06
7.5963216269e-06
7.58815490244e-06
7.58192771742e-06
7.57769666759e-06
7.57441861651e-06
7.21720706634e-185
7.21720706634e-185
7.21720706635e-185
7.21720706635e-185
7.21720706636e-185
7.21720706636e-185
7.21720706637e-185
7.21720706637e-185
7.21720706638e-185
7.21720706638e-185
7.21720706639e-185
7.21720706639e-185
7.2172070664e-185
7.21720706641e-185
7.21720706681e-185
7.21720708944e-185
7.217208386e-185
7.21728031793e-185
7.2213099563e-185
7.31561769862e-185
3.60664266236e-71
2.46208121255e-16
1.46850786741e-05
1.84499109245e-05
1.21082309088e-05
9.39042541133e-06
8.49414538074e-06
8.24782990293e-06
8.17632620564e-06
8.15386094783e-06
8.13956043783e-06
8.13054483014e-06
8.12189238354e-06
8.11321311085e-06
8.10428524031e-06
8.09158298768e-06
8.08184299614e-06
8.07159347429e-06
8.06079248855e-06
8.04936099369e-06
8.03723664915e-06
8.02436849573e-06
8.01071408154e-06
7.99638833203e-06
7.98122980799e-06
7.96522358943e-06
7.94837674384e-06
7.93072164796e-06
7.91237886176e-06
7.8933170194e-06
7.87361701517e-06
7.85337727702e-06
7.83273443675e-06
7.81180968824e-06
7.79075406012e-06
7.76974967172e-06
7.74907220985e-06
7.72889145097e-06
7.70930321097e-06
7.69051921901e-06
7.67273761794e-06
7.65617346982e-06
7.64097865928e-06
7.62730753253e-06
7.61530062438e-06
7.60508915121e-06
7.5967767603e-06
7.59043713719e-06
7.5861177105e-06
7.58285179906e-06
7.21720706419e-185
7.2172070642e-185
7.2172070642e-185
7.2172070642e-185
7.21720706421e-185
7.21720706421e-185
7.21720706422e-185
7.21720706422e-185
7.21720706423e-185
7.21720706423e-185
7.21720706423e-185
7.21720706424e-185
7.21720706424e-185
7.21720706427e-185
7.21720706568e-185
7.21720714626e-185
7.21721175849e-185
7.21746580531e-185
7.23169071272e-185
7.45671741228e-185
1.12964032735e-46
1.26892102085e-08
2.74175675791e-05
1.61743636187e-05
1.11184043982e-05
9.13158971354e-06
8.52535404525e-06
8.35799959765e-06
8.30236161929e-06
8.27789829089e-06
8.26172102756e-06
8.24673600191e-06
8.23199748013e-06
8.21729196308e-06
8.20255734427e-06
8.18768964648e-06
8.17261260291e-06
8.1572612751e-06
8.13824290299e-06
8.1222788374e-06
8.10581677932e-06
8.08880678804e-06
8.07120955451e-06
8.05299107239e-06
8.03410547142e-06
8.01454245204e-06
7.99432727587e-06
7.97362497835e-06
7.95231180082e-06
7.93044761689e-06
7.90813125957e-06
7.88553794682e-06
7.86268123531e-06
7.83970308646e-06
7.81678489397e-06
7.79412763044e-06
7.77186314321e-06
7.75015149467e-06
7.72918770586e-06
7.70933161058e-06
7.69065627564e-06
7.67330617049e-06
7.65741251382e-06
7.64646167303e-06
7.63393661961e-06
7.62332043228e-06
7.61468816868e-06
7.60810662835e-06
7.60362479571e-06
7.5970128904e-06
7.21720706253e-185
7.21720706254e-185
7.21720706254e-185
7.21720706254e-185
7.21720706255e-185
7.21720706255e-185
7.21720706255e-185
7.21720706256e-185
7.21720706256e-185
7.21720706256e-185
7.21720706257e-185
7.21720706257e-185
7.21720706257e-185
7.21720706264e-185
7.21720706647e-185
7.21720728403e-185
7.21721966133e-185
7.21789585865e-185
7.25497570772e-185
7.710932478e-185
2.28144686349e-27
8.35221787094e-07
2.30229381377e-05
1.45411449652e-05
1.05346917272e-05
9.06990872327e-06
8.64975588815e-06
8.52830016319e-06
8.47706399003e-06
8.44664595197e-06
8.422806516e-06
8.39997165875e-06
8.37758091546e-06
8.35550204274e-06
8.3336103255e-06
8.31182532459e-06
8.29023215735e-06
8.26866584111e-06
8.24697040684e-06
8.22508097171e-06
8.20295668396e-06
8.18050088511e-06
8.15765941904e-06
8.13449332457e-06
8.11098340817e-06
8.08699863273e-06
8.06254090078e-06
8.03766073429e-06
8.01237363586e-06
7.98673747687e-06
7.96090884004e-06
7.93506873227e-06
7.90916436568e-06
7.88334381738e-06
7.85787613329e-06
7.83284572259e-06
7.80841070575e-06
7.784735003e-06
7.76203689532e-06
7.74045987006e-06
7.72020117535e-06
7.70144360692e-06
7.68442230377e-06
7.66923994239e-06
7.65595890471e-06
7.64468861924e-06
7.63552099499e-06
7.62851487574e-06
7.62370766383e-06
7.62026215867e-06
7.21720706121e-185
7.21720706121e-185
7.21720706122e-185
7.21720706122e-185
7.21720706122e-185
7.21720706123e-185
7.21720706123e-185
7.21720706123e-185
7.21720706123e-185
7.21720706124e-185
7.21720706124e-185
7.21720706124e-185
7.21720706125e-185
7.21720706144e-185
7.21720707226e-185
7.21720769173e-185
7.21724244434e-185
7.21917401296e-185
7.28606159691e-185
1.20048120945e-71
6.49044137574e-19
5.71460509247e-06
2.03674309513e-05
1.33324179557e-05
1.01999813689e-05
9.13694662633e-06
8.83766230935e-06
8.74248615278e-06
8.69106720117e-06
8.65170556463e-06
8.61826488792e-06
8.58596531711e-06
8.5544094516e-06
8.5236687916e-06
8.49350892359e-06
8.46375503866e-06
8.43447432084e-06
8.40542098201e-06
8.37651081926e-06
8.34769004838e-06
8.31885205988e-06
8.28998432038e-06
8.26117895481e-06
8.23218162725e-06
8.20296385101e-06
8.17353468362e-06
8.14386235497e-06
8.11399519318e-06
8.08419074005e-06
8.05426506033e-06
8.02430909524e-06
7.99445011028e-06
7.96477758243e-06
7.93542262853e-06
7.90674976323e-06
7.87873982095e-06
7.85154206199e-06
7.82541148351e-06
7.80050213923e-06
7.77693477602e-06
7.75488019134e-06
7.73451096674e-06
7.71933234229e-06
7.70278878695e-06
7.68835772976e-06
7.6761259557e-06
7.66617416931e-06
7.65856220594e-06
7.65332033464e-06
7.64971151764e-06
7.21720706014e-185
7.21720706014e-185
7.21720706014e-185
7.21720706015e-185
7.21720706015e-185
7.21720706015e-185
7.21720706015e-185
7.21720706016e-185
7.21720706016e-185
7.21720706016e-185
7.21720706016e-185
7.21720706017e-185
7.21720706018e-185
7.21720706072e-185
7.21720709173e-185
7.21720885917e-185
7.21730626721e-185
7.22273620192e-185
7.33593318715e-185
4.95670231072e-71
3.12583073241e-15
1.89747922797e-05
1.83282264658e-05
1.24915377744e-05
1.0053999052e-05
9.29311705436e-06
9.07775395832e-06
8.992396786e-06
8.93733431699e-06
8.89119246647e-06
8.84355123939e-06
8.80081219002e-06
8.75917208552e-06
8.71846513115e-06
8.67890102028e-06
8.64010650317e-06
8.60196378017e-06
8.56436281132e-06
8.52727920174e-06
8.49078084974e-06
8.45453073966e-06
8.41860916183e-06
8.38284133496e-06
8.3471493095e-06
8.31151797255e-06
8.27589802968e-06
8.24048288466e-06
8.20520653431e-06
8.17343090258e-06
8.13837422779e-06
8.10354197177e-06
8.069083649e-06
8.03531558469e-06
8.00211418363e-06
7.96968605641e-06
7.93824149667e-06
7.90785616278e-06
7.87871583229e-06
7.8510248905e-06
7.82491996705e-06
7.80057225779e-06
7.77824972554e-06
7.758065848e-06
7.74007634522e-06
7.72439714703e-06
7.71111810908e-06
7.70031513189e-06
7.69204284523e-06
7.68632869428e-06
7.68242488872e-06
7.21720705925e-185
7.21720705926e-185
7.21720705926e-185
7.21720705926e-185
7.21720705926e-185
7.21720705926e-185
7.21720705927e-185
7.21720705927e-185
7.21720705927e-185
7.21720705927e-185
7.21720705928e-185
7.21720705928e-185
7.21720705931e-185
7.21720706092e-185
7.21720715279e-185
7.2172123839e-185
7.21749902354e-185
7.2334097539e-185
7.47740062901e-185
1.40131394465e-46
1.9722253826e-08
2.75229156396e-05
1.66361190091e-05
1.18863214339e-05
1.00533143134e-05
9.51720594088e-06
9.35543655693e-06
9.27435028979e-06
9.21020284843e-06
9.15270587656e-06
9.09731382768e-06
9.04342408589e-06
8.99086363876e-06
8.93974159599e-06
8.88994586509e-06
8.84132103886e-06
8.79368655787e-06
8.74690975943e-06
8.70086882673e-06
8.65574766798e-06
8.61126911597e-06
8.56728371688e-06
8.52370979528e-06
8.4806544112e-06
8.43809498904e-06
8.39586694833e-06
8.354073903e-06
8.31258819469e-06
8.27148307393e-06
8.23079119218e-06
8.19078647101e-06
8.15150668616e-06
8.1129458382e-06
8.075268335e-06
8.03858709711e-06
8.00322573498e-06
7.96931088111e-06
7.94031402797e-06
7.90960493566e-06
7.88086419973e-06
7.85413401257e-06
7.82957677327e-06
7.80743843921e-06
7.78773671864e-06
7.77058364595e-06
7.7560669482e-06
7.74425379176e-06
7.73519467924e-06
7.72891781541e-06
7.72473201667e-06
7.21720705851e-185
7.21720705851e-185
7.21720705851e-185
7.21720705852e-185
7.21720705852e-185
7.21720705852e-185
7.21720705852e-185
7.21720705852e-185
7.21720705853e-185
7.21720705853e-185
7.21720705853e-185
7.21720705853e-185
7.21720705861e-185
7.21720706272e-185
7.21720729456e-185
7.21722035978e-185
7.21792820962e-185
7.25629338108e-185
7.7259954615e-185
2.33778201104e-27
7.8771522068e-07
2.3587377148e-05
1.53403676229e-05
1.15147807754e-05
1.01753190326e-05
9.80366843551e-06
9.67320424071e-06
9.58442007426e-06
9.51108359296e-06
9.44031571174e-06
9.37187262448e-06
9.30555855533e-06
9.24121011914e-06
9.17847681007e-06
9.11732129485e-06
9.0579724669e-06
8.99990770004e-06
8.94302278489e-06
8.88757022804e-06
8.83316259661e-06
8.77985148313e-06
8.7273159499e-06
8.67553053987e-06
8.62452127168e-06
8.57439737584e-06
8.52485612677e-06
8.47966224727e-06
8.43149412895e-06
8.38399773229e-06
8.33729881882e-06
8.29166000477e-06
8.24691067513e-06
8.20320333055e-06
8.16064053229e-06
8.11965386759e-06
8.08016055992e-06
8.04235542871e-06
8.00644031367e-06
7.97249064564e-06
7.94069025889e-06
7.91119851771e-06
7.88415383929e-06
7.85972594016e-06
7.84182765436e-06
7.82305749781e-06
7.80719671106e-06
7.79429285544e-06
7.78438498127e-06
7.7774859184e-06
7.77296485632e-06
7.21720705788e-185
7.21720705788e-185
7.21720705788e-185
7.21720705789e-185
7.21720705789e-185
7.21720705789e-185
7.21720705789e-185
7.21720705789e-185
7.21720705789e-185
7.2172070579e-185
7.2172070579e-185
7.2172070579e-185
7.21720705811e-185
7.21720707001e-185
7.21720774406e-185
7.21724517048e-185
7.21930346373e-185
7.2889848743e-185
1.26879815983e-71
7.17147604325e-19
5.39137292532e-06
2.10417774319e-05
1.42964888145e-05
1.13595857182e-05
1.04080483688e-05
1.01446506834e-05
1.00277211296e-05
9.92918416323e-06
9.84000271439e-06
9.75401992475e-06
9.67089292058e-06
9.59025035241e-06
9.51239056958e-06
9.43683484067e-06
9.36336893539e-06
9.29226273383e-06
9.22306624851e-06
9.15552078788e-06
9.08944202513e-06
9.02866786547e-06
8.96565391946e-06
8.90399262871e-06
8.84339907197e-06
8.783798607e-06
8.7255416023e-06
8.6682471914e-06
8.61189473495e-06
8.55662148962e-06
8.50256685633e-06
8.44965427598e-06
8.39792943355e-06
8.35098142424e-06
8.30195061347e-06
8.25440612313e-06
8.20847937054e-06
8.16446532825e-06
8.12256560658e-06
8.08277218836e-06
8.04540789007e-06
8.01046943668e-06
7.97812547555e-06
7.94854234729e-06
7.92183259472e-06
7.89812021182e-06
7.87761301895e-06
7.86032753488e-06
7.8462613245e-06
7.83545012915e-06
7.82790181545e-06
7.82302737578e-06
7.21720705734e-185
7.21720705734e-185
7.21720705734e-185
7.21720705735e-185
7.21720705735e-185
7.21720705735e-185
7.21720705735e-185
7.21720705735e-185
7.21720705735e-185
7.21720705736e-185
7.21720705736e-185
7.21720705737e-185
7.21720705802e-185
7.21720709446e-185
7.21720914586e-185
7.21732086771e-185
7.22346682127e-185
7.34686110375e-185
5.44228504558e-71
6.93687870857e-15
1.90688165826e-05
1.90352503714e-05
1.35516988217e-05
1.13666161845e-05
1.07258275827e-05
1.05337171324e-05
1.04127564772e-05
1.03009045635e-05
1.01941453347e-05
1.00910172898e-05
9.99154165999e-06
9.89565320673e-06
9.80292058521e-06
9.71721550802e-06
9.63061417952e-06
9.5464142366e-06
9.464840967e-06
9.38564936494e-06
9.30854756535e-06
9.23325555828e-06
9.15999458102e-06
9.0884287243e-06
9.01832687099e-06
8.95000457719e-06
8.88667780681e-06
8.8212163151e-06
8.75719772531e-06
8.69451598399e-06
8.63317122512e-06
8.57340213463e-06
8.51529046633e-06
8.45888422699e-06
8.40417077059e-06
8.35128250545e-06
8.30410191495e-06
8.25558340148e-06
8.20930852588e-06
8.16548383444e-06
8.12424447976e-06
8.08591505081e-06
8.05062304016e-06
8.01836789402e-06
7.98936237458e-06
7.96368093534e-06
7.94136973364e-06
7.92250788278e-06
7.90715372358e-06
7.89534619817e-06
7.88708222791e-06
7.88181306871e-06
7.21720705687e-185
7.21720705688e-185
7.21720705688e-185
7.21720705688e-185
7.21720705688e-185
7.21720705688e-185
7.21720705688e-185
7.21720705688e-185
7.21720705689e-185
7.21720705689e-185
7.21720705689e-185
7.21720705693e-185
7.21720705911e-185
7.21720718161e-185
7.217214053e-185
7.21758525002e-185
7.2378102258e-185
7.5283151601e-185
6.46969339172e-36
5.45153626277e-08
2.74067890878e-05
1.73536788087e-05
1.30681100327e-05
1.15166059153e-05
1.11043294261e-05
1.09535415607e-05
1.08222141224e-05
1.06918483384e-05
1.05672433085e-05
1.04465485917e-05
1.03340294604e-05
1.0221872599e-05
1.01138281619e-05
1.00093003811e-05
9.90837926978e-06
9.81069105772e-06
9.71607547777e-06
9.62450996569e-06
9.53927249947e-06
9.4528281333e-06
9.36850097536e-06
9.28651250825e-06
9.20660719356e-06
9.12849027549e-06
9.05265027311e-06
8.97863399807e-06
8.90995497382e-06
8.83952791494e-06
8.77096829741e-06
8.70419352474e-06
8.6392358302e-06
8.57648318685e-06
8.51587455075e-06
8.45763288943e-06
8.40166478456e-06
8.34814604873e-06
8.30110387753e-06
8.2532649868e-06
8.20837199425e-06
8.16668990923e-06
8.12821888715e-06
8.09312942018e-06
8.06152498579e-06
8.03351690466e-06
8.0092649463e-06
7.98886747458e-06
7.97225107653e-06
7.9594433949e-06
7.95044557234e-06
7.94477760377e-06
7.21720705647e-185
7.21720705647e-185
7.21720705647e-185
7.21720705647e-185
7.21720705647e-185
7.21720705647e-185
7.21720705648e-185
7.21720705648e-185
7.21720705648e-185
7.21720705648e-185
7.21720705648e-185
7.21720705659e-185
7.21720706263e-185
7.21720739704e-185
7.21722586786e-185
7.21820820566e-185
7.26982394054e-185
7.87224759067e-185
2.5551107806e-22
1.56222191679e-06
2.33684192628e-05
1.60495812922e-05
1.28458027145e-05
1.18102013199e-05
1.1550752487e-05
1.140656895e-05
1.12567030579e-05
1.11083738519e-05
1.09633502044e-05
1.08235155585e-05
1.06889070343e-05
1.055954939e-05
1.04346401369e-05
1.03145751294e-05
1.02022470848e-05
1.00903520608e-05
9.98219700131e-06
9.87720105336e-06
9.77582342844e-06
9.67754331828e-06
9.58586221108e-06
9.4928809795e-06
9.40258997477e-06
9.31488783765e-06
9.22949190302e-06
9.14618296555e-06
9.06545057559e-06
8.98697308962e-06
8.91453662981e-06
8.84030678193e-06
8.76870436765e-06
8.69953376746e-06
8.63288497368e-06
8.56875772489e-06
8.50738213272e-06
8.44910823242e-06
8.39764588619e-06
8.34556013615e-06
8.29682848862e-06
8.25158464139e-06
8.20988934337e-06
8.1718975362e-06
8.1377050407e-06
8.10753054249e-06
8.08144436537e-06
8.05939069265e-06
8.04141104665e-06
8.02752833042e-06
8.01774541685e-06
8.01166606524e-06
7.21720705611e-185
7.21720705611e-185
7.21720705611e-185
7.21720705611e-185
7.21720705612e-185
7.21720705612e-185
7.21720705612e-185
7.21720705612e-185
7.21720705612e-185
7.21720705612e-185
7.21720705613e-185
7.21720705657e-185
7.21720708117e-185
7.21720844993e-185
7.2172824971e-185
7.22129773144e-185
7.31858860285e-185
3.19227002807e-71
7.62998831404e-17
1.03882575234e-05
2.08375604087e-05
1.51393043361e-05
1.28627324835e-05
1.22342132539e-05
1.20468841928e-05
1.18893122312e-05
1.17149955761e-05
1.15418275411e-05
1.13743160286e-05
1.1213038798e-05
1.10586386374e-05
1.09142504474e-05
1.07719160214e-05
1.06347246446e-05
1.05029919906e-05
1.03758706808e-05
1.02571758639e-05
1.01386893486e-05
1.00242327376e-05
9.91322105524e-06
9.80591186807e-06
9.70171281924e-06
9.60483719849e-06
9.50691846916e-06
9.41172582777e-06
9.31927001553e-06
9.22975489044e-06
9.14294118717e-06
9.062569322e-06
8.98105496473e-06
8.90240158752e-06
8.82658464532e-06
8.75378967306e-06
8.68388121982e-06
8.61701982175e-06
8.55374996779e-06
8.49791908476e-06
8.44136798443e-06
8.3886511621e-06
8.33982125471e-06
8.29495782898e-06
8.25417486572e-06
8.21749907528e-06
8.18506440727e-06
8.1569177246e-06
8.13311440246e-06
8.11370152613e-06
8.09878628954e-06
8.08822806227e-06
8.08166558624e-06
7.2172070558e-185
7.2172070558e-185
7.2172070558e-185
7.2172070558e-185
7.2172070558e-185
7.2172070558e-185
7.2172070558e-185
7.2172070558e-185
7.2172070558e-185
7.21720705581e-185
7.21720705584e-185
7.21720705758e-185
7.21720715386e-185
7.21721246679e-185
7.21749558299e-185
7.23270956689e-185
7.47138631463e-185
1.02259069729e-46
5.35839413115e-09
2.88759297685e-05
1.88098383975e-05
1.45765461702e-05
1.30881666697e-05
1.27326262532e-05
1.25749488315e-05
1.23882391688e-05
1.2188514513e-05
1.19897616319e-05
1.17986327532e-05
1.16193789834e-05
1.14437842791e-05
1.12759663251e-05
1.11146415451e-05
1.0964125876e-05
1.08153374333e-05
1.06723622576e-05
1.05348125031e-05
1.04019974561e-05
1.02779047495e-05
1.01543355256e-05
1.00348931601e-05
9.91911038483e-06
9.80715798438e-06
9.70290454567e-06
9.59770763888e-06
9.49589292484e-06
9.39746129285e-06
9.30208691573e-06
9.20978533552e-06
9.12510204939e-06
9.03908394692e-06
8.95661285637e-06
8.87753304222e-06
8.80182536491e-06
8.72951927706e-06
8.66112137393e-06
8.60066034805e-06
8.54000513107e-06
8.48338959347e-06
8.43096117531e-06
8.38276097876e-06
8.33891382265e-06
8.29956109753e-06
8.26497051111e-06
8.23493910732e-06
8.20952721589e-06
8.1888263902e-06
8.17281291481e-06
8.16142898425e-06
8.15435938945e-06
7.21720705552e-185
7.21720705552e-185
7.21720705552e-185
7.21720705552e-185
7.21720705552e-185
7.21720705552e-185
7.21720705552e-185
7.21720705552e-185
7.21720705552e-185
7.21720705553e-185
7.21720705564e-185
7.21720706191e-185
7.21720740424e-185
7.21722604554e-185
7.21820504109e-185
7.26890535983e-185
7.86021393559e-185
5.64351542182e-24
1.15141720672e-06
2.4486952975e-05
1.73411009947e-05
1.43632044444e-05
1.34913391485e-05
1.32922627101e-05
1.31223185849e-05
1.29007289046e-05
1.26714160729e-05
1.24509628639e-05
1.22352916815e-05
1.20290908477e-05
1.18324053894e-05
1.16479698458e-05
1.14677097193e-05
1.12946879369e-05
1.11330672484e-05
1.09737918297e-05
1.08205342147e-05
1.06733165515e-05
1.05353769867e-05
1.03986421026e-05
1.02665389231e-05
1.01389312398e-05
1.00159107177e-05
9.90106295546e-06
9.78574112584e-06
9.67441686472e-06
9.56696507472e-06
9.46321109698e-06
9.36708436259e-06
9.27054509446e-06
9.17767743558e-06
9.08846047015e-06
9.00281234003e-06
8.92138639173e-06
8.84392631507e-06
8.77465857375e-06
8.7053788769e-06
8.64028808031e-06
8.57956746626e-06
8.52361435354e-06
8.47225260865e-06
8.42567744237e-06
8.38383829739e-06
8.34698861568e-06
8.31499107686e-06
8.29198740727e-06
8.26982058981e-06
8.25266185132e-06
8.2404093791e-06
8.23281384693e-06
7.21720705526e-185
7.21720705527e-185
7.21720705527e-185
7.21720705527e-185
7.21720705527e-185
7.21720705527e-185
7.21720705527e-185
7.21720705527e-185
7.21720705527e-185
7.21720705528e-185
7.21720705586e-185
7.21720708719e-185
7.21720880159e-185
7.21729996834e-185
7.22215795239e-185
7.3314374572e-185
3.79598160213e-71
1.92530264437e-16
1.09620349339e-05
2.15509483141e-05
1.64012307052e-05
1.44874442636e-05
1.4050136857e-05
1.39011688874e-05
1.36866664614e-05
1.34305525543e-05
1.31684891539e-05
1.29155553555e-05
1.2674576729e-05
1.24486027955e-05
1.22291120315e-05
1.20198177942e-05
1.18236804194e-05
1.16322584454e-05
1.1448555878e-05
1.12771194726e-05
1.1108100454e-05
1.09459153983e-05
1.07898189722e-05
1.0643984127e-05
1.0499340284e-05
1.03596155802e-05
1.02251913131e-05
1.00996325061e-05
9.97439218326e-06
9.8535836351e-06
9.73675512804e-06
9.62443529426e-06
9.52062855714e-06
9.41624557854e-06
9.31625530911e-06
9.22050861142e-06
9.12899362925e-06
9.04176693398e-06
8.96307366529e-06
8.88463480209e-06
8.81081204985e-06
8.74155494373e-06
8.67696851107e-06
8.61747457226e-06
8.56293835792e-06
8.51354517191e-06
8.47360351302e-06
8.43441610651e-06
8.4004780407e-06
8.37172633266e-06
8.34820451591e-06
8.32994807105e-06
8.31684753085e-06
8.30869591367e-06
7.21720705504e-185
7.21720705504e-185
7.21720705504e-185
7.21720705504e-185
7.21720705504e-185
7.21720705504e-185
7.21720705504e-185
7.21720705505e-185
7.21720705505e-185
7.2172070551e-185
7.21720705796e-185
7.21720721387e-185
7.21721567926e-185
7.21765953869e-185
7.24094453118e-185
7.56578104091e-185
9.80614380938e-36
5.15558832877e-08
2.91290954303e-05
1.94701515302e-05
1.59420852602e-05
1.48809056773e-05
1.46897871793e-05
1.45217433226e-05
1.42551284107e-05
1.39581610872e-05
1.36643796129e-05
1.33876313698e-05
1.31198345416e-05
1.28654535062e-05
1.26271371733e-05
1.2395786768e-05
1.21797093918e-05
1.19690952139e-05
1.17676199118e-05
1.15793624148e-05
1.1394449392e-05
1.12173603049e-05
1.10468805866e-05
1.08877867908e-05
1.07305422408e-05
1.0579171073e-05
1.04331382719e-05
1.0297242802e-05
1.01616643915e-05
1.00311941791e-05
9.90566563247e-06
9.78929512667e-06
9.67305744437e-06
9.56115620361e-06
9.45423718973e-06
9.35195522909e-06
9.25865980576e-06
9.16567960026e-06
9.07753451066e-06
8.9942473539e-06
8.91591434623e-06
8.84265511175e-06
8.77457977386e-06
8.71612307142e-06
8.65851300496e-06
8.60618311725e-06
8.5592282789e-06
8.51769657613e-06
8.481898692e-06
8.45155957382e-06
8.42668738127e-06
8.40727890527e-06
8.39331698703e-06
8.38458185277e-06
7.21720705484e-185
7.21720705484e-185
7.21720705484e-185
7.21720705484e-185
7.21720705484e-185
7.21720705484e-185
7.21720705484e-185
7.21720705484e-185
7.21720705485e-185
7.21720705512e-185
7.21720706968e-185
7.21720785927e-185
7.21724991702e-185
7.21945850103e-185
7.29458267064e-185
1.11100068139e-71
2.15252324851e-19
3.33208464485e-06
2.39746761078e-05
1.81358045848e-05
1.59590259454e-05
1.54846563785e-05
1.53767484967e-05
1.51413063329e-05
1.48186052107e-05
1.448273214e-05
1.41613467595e-05
1.38518609057e-05
1.35620033168e-05
1.32827188946e-05
1.30214251344e-05
1.27686284968e-05
1.2527807339e-05
1.23023611439e-05
1.20827739087e-05
1.18732873408e-05
1.16767170886e-05
1.14846055459e-05
1.13003378082e-05
1.11280344643e-05
1.09578288662e-05
1.07947199945e-05
1.06423905799e-05
1.04910024181e-05
1.03457622272e-05
1.02061121405e-05
1.00761824141e-05
9.94710182663e-06
9.82315208175e-06
9.70419418322e-06
9.5902236957e-06
9.48618721106e-06
9.38254242961e-06
9.28404669701e-06
9.19076522086e-06
9.10277721571e-06
9.01993426156e-06
8.94745886143e-06
8.87562715981e-06
8.80942311203e-06
8.74872732049e-06
8.6936241505e-06
8.64439681451e-06
8.60096133635e-06
8.56326064466e-06
8.53138004614e-06
8.50991373013e-06
8.48937753651e-06
8.47447470128e-06
8.46507819873e-06
7.21720705465e-185
7.21720705465e-185
7.21720705465e-185
7.21720705465e-185
7.21720705465e-185
7.21720705465e-185
7.21720705466e-185
7.21720705466e-185
7.21720705469e-185
7.21720705637e-185
7.2172071471e-185
7.21721203179e-185
7.21746642877e-185
7.23074093504e-185
7.44611869359e-185
4.6150463303e-47
1.00030557424e-10
2.33831477016e-05
2.12890353159e-05
1.74969382564e-05
1.63684481087e-05
1.6226176134e-05
1.60728858862e-05
1.57548413665e-05
1.53789718487e-05
1.50045701976e-05
1.46517226754e-05
1.43129834582e-05
1.39965135181e-05
1.36924574427e-05
1.34078545606e-05
1.31335704026e-05
1.28722103898e-05
1.26282216827e-05
1.239076738e-05
1.21690285442e-05
1.19524736501e-05
1.17453578581e-05
1.15516945948e-05
1.13616108895e-05
1.11794200509e-05
1.10093846933e-05
1.08411481371e-05
1.06797833841e-05
1.05249267027e-05
1.03807625492e-05
1.02376765748e-05
1.01005892869e-05
9.96916673477e-06
9.84809400633e-06
9.72769540266e-06
9.61283565534e-06
9.50352836067e-06
9.39958987558e-06
9.30628861997e-06
9.21370375327e-06
9.12681692261e-06
9.04572133061e-06
8.97049375235e-06
8.90112042863e-06
8.83766292125e-06
8.78502362377e-06
8.73347568395e-06
8.68799074143e-06
8.64851004382e-06
8.61498013488e-06
8.58748934623e-06
8.56589163963e-06
8.55012739941e-06
8.54009054498e-06
7.21720705448e-185
7.21720705448e-185
7.21720705448e-185
7.21720705448e-185
7.21720705449e-185
7.21720705449e-185
7.21720705449e-185
7.21720705449e-185
7.21720705466e-185
7.21720706379e-185
7.21720754916e-185
7.21723334626e-185
7.21856718606e-185
7.28111740529e-185
1.86640791854e-72
5.47749427817e-22
1.377905382e-06
2.58428972405e-05
1.96144639009e-05
1.74438184561e-05
1.70488568499e-05
1.69957305971e-05
1.67395953624e-05
1.63404534376e-05
1.59165998754e-05
1.55114407619e-05
1.51228380647e-05
1.47601987233e-05
1.44132156759e-05
1.40888393294e-05
1.37819610809e-05
1.34863889422e-05
1.32052242626e-05
1.2942693159e-05
1.26878934767e-05
1.24498520183e-05
1.22182208174e-05
1.19967998894e-05
1.17896656896e-05
1.15870069081e-05
1.13929828758e-05
1.12114298782e-05
1.10327904073e-05
1.08613172666e-05
1.07020912432e-05
1.05444908071e-05
1.03933611173e-05
1.02486666995e-05
1.0114800481e-05
9.98216543543e-06
9.85556645354e-06
9.73495559871e-06
9.62532759846e-06
9.5165264408e-06
9.41342507338e-06
9.31658145832e-06
9.22587642969e-06
9.14126453318e-06
9.06791719975e-06
8.99556869057e-06
8.92940467071e-06
8.86945529881e-06
8.81582509002e-06
8.76840240034e-06
8.72725473158e-06