/*--------------------------------*- C++ -*----------------------------------*\
| =========                 |                                                 |
| \\      /  F ield         | foam-extend: Open Source CFD                    |
|  \\    /   O peration     | Version:     4.1                                |
|   \\  /    A nd           | Web:         http://www.foam-extend.org         |
|    \\/     M anipulation  |                                                 |
\*---------------------------------------------------------------------------*/
FoamFile
{
    version     2.0;
    format      ascii;
    class       volScalarField;
    location    "0.001";
    object      NO;
}
// * * * * * * * * * * * * * * * * * * * * * * * * * * * * * * * * * * * * * //

dimensions      [0 0 0 0 0 0 0];

internalField   nonuniform List<scalar> 
8400
(
2.19526275851e-21
2.19526275852e-21
2.19526275852e-21
2.19526275853e-21
2.19526275853e-21
2.19526275854e-21
2.19526275854e-21
2.19526275854e-21
2.19526275855e-21
2.19526275855e-21
2.19526275856e-21
2.19526275856e-21
2.19526275857e-21
2.19526275857e-21
2.19526275857e-21
2.19526275858e-21
2.19526275896e-21
2.19526278028e-21
2.19526398954e-21
2.1953297998e-21
2.19894710818e-21
2.24551893176e-21
0.00122354251468
0.00286648739879
2.15608157685e-05
2.87374050932e-06
1.19981381942e-06
7.81814676257e-07
6.54986728076e-07
6.128042915e-07
5.97934636474e-07
5.92055444447e-07
5.88481632556e-07
5.8568936462e-07
5.83249419303e-07
5.81031859201e-07
5.78975157266e-07
5.77052607004e-07
5.75219512439e-07
5.73448799525e-07
5.71716498068e-07
5.70002688105e-07
5.68288634127e-07
5.66557501842e-07
5.64816187498e-07
5.63036896589e-07
5.6120438728e-07
5.59309425654e-07
5.57340631282e-07
5.55710211346e-07
5.53599937489e-07
5.51441504527e-07
5.4921717786e-07
5.46934364084e-07
5.44604152254e-07
5.42256407986e-07
5.39911207572e-07
5.37573935068e-07
5.35268289131e-07
5.33020845775e-07
5.3087402156e-07
5.28844951999e-07
5.26955427656e-07
5.25232994889e-07
5.23703362885e-07
5.22389918846e-07
5.21322937291e-07
5.2051169589e-07
5.19958179066e-07
5.19085133261e-07
2.19526275695e-21
2.19526275695e-21
2.19526275696e-21
2.19526275696e-21
2.19526275696e-21
2.19526275696e-21
2.19526275696e-21
2.19526275696e-21
2.19526275697e-21
2.19526275697e-21
2.19526275697e-21
2.19526275697e-21
2.19526275697e-21
2.19526275698e-21
2.19526275698e-21
2.19526275701e-21
2.19526275869e-21
2.19526285458e-21
2.19526819115e-21
2.19556501436e-21
2.2044849126e-21
4.48892874513e-09
0.0245714243175
0.00140913682581
7.18603867858e-06
1.87474882485e-06
9.40683268946e-07
6.87209987148e-07
6.08648377299e-07
5.83909234515e-07
5.76699158754e-07
5.7361655501e-07
5.71995173479e-07
5.70566870453e-07
5.69162658767e-07
5.67748921343e-07
5.65905352378e-07
5.64461687386e-07
5.62982748948e-07
5.61466940603e-07
5.59910205921e-07
5.58307425803e-07
5.56682828325e-07
5.54996622626e-07
5.53244109349e-07
5.5142053386e-07
5.49521552675e-07
5.47572517885e-07
5.45543479114e-07
5.43434851547e-07
5.41249732807e-07
5.39004733498e-07
5.36713409371e-07
5.34372742047e-07
5.31996046336e-07
5.29605594363e-07
5.27249703673e-07
5.249153536e-07
5.22628095106e-07
5.20414764233e-07
5.18314509058e-07
5.16338871106e-07
5.14505978955e-07
5.12842996743e-07
5.11374319489e-07
5.10120349132e-07
5.09108667349e-07
5.08337735123e-07
5.07810810199e-07
5.07064384841e-07
2.19526275617e-21
2.19526275617e-21
2.19526275617e-21
2.19526275617e-21
2.19526275617e-21
2.19526275617e-21
2.19526275617e-21
2.19526275617e-21
2.19526275618e-21
2.19526275618e-21
2.19526275618e-21
2.19526275618e-21
2.19526275618e-21
2.19526275618e-21
2.19526275618e-21
2.19526275636e-21
2.19526276614e-21
2.19526332569e-21
2.1952940902e-21
2.19701650582e-21
2.22428029073e-21
1.06976623686e-05
0.00480386601684
8.60275900878e-05
3.57383196902e-06
1.30273589349e-06
7.8249127254e-07
6.30697169966e-07
5.842307892e-07
5.7031081514e-07
5.66562123671e-07
5.65372385674e-07
5.64603099213e-07
5.63869352106e-07
5.6266303981e-07
5.61791422352e-07
5.60836149007e-07
5.59799598277e-07
5.58684435464e-07
5.57513515507e-07
5.56257741459e-07
5.5491466034e-07
5.53480434202e-07
5.51952714122e-07
5.50339073779e-07
5.48648685783e-07
5.46861933944e-07
5.44981706667e-07
5.42603416169e-07
5.40549006847e-07
5.3841877287e-07
5.36215976033e-07
5.33952620045e-07
5.3164657524e-07
5.29344736209e-07
5.27026922659e-07
5.24712808299e-07
5.22428788969e-07
5.20227542083e-07
5.18113789126e-07
5.16096366937e-07
5.14191993518e-07
5.124299836e-07
5.10850032834e-07
5.09479115289e-07
5.08304793048e-07
5.0769862159e-07
5.06592583852e-07
5.06086827059e-07
5.05409746469e-07
2.19526275567e-21
2.19526275567e-21
2.19526275567e-21
2.19526275567e-21
2.19526275567e-21
2.19526275567e-21
2.19526275567e-21
2.19526275567e-21
2.19526275567e-21
2.19526275567e-21
2.19526275567e-21
2.19526275567e-21
2.19526275568e-21
2.19526275568e-21
2.19526275569e-21
2.19526275631e-21
2.19526279158e-21
2.19526479314e-21
2.19537384011e-21
2.20129543842e-21
2.27122507066e-21
0.0116158946483
0.00209068121992
1.13849261511e-05
2.26357456664e-06
1.02842788066e-06
7.05785583322e-07
6.08956440686e-07
5.78979767261e-07
5.70541167739e-07
5.67866360533e-07
5.66807644506e-07
5.65968523365e-07
5.65144392735e-07
5.64289268544e-07
5.62962725477e-07
5.61982795918e-07
5.6092645879e-07
5.59792393073e-07
5.58584795218e-07
5.57312083669e-07
5.5594862606e-07
5.54490151841e-07
5.52933260887e-07
5.51275972132e-07
5.4953296603e-07
5.47702625073e-07
5.45773895959e-07
5.43749869965e-07
5.41636651842e-07
5.39458572814e-07
5.37219673793e-07
5.34925627195e-07
5.32591246043e-07
5.30243312788e-07
5.27919644573e-07
5.2561036189e-07
5.23339146728e-07
5.2112993234e-07
5.19023019166e-07
5.17026668419e-07
5.15156836919e-07
5.13434579004e-07
5.11880994539e-07
5.10515690073e-07
5.09373223419e-07
5.08442076617e-07
5.07729608966e-07
5.07241347915e-07
5.06640459598e-07
2.19526275531e-21
2.19526275531e-21
2.19526275531e-21
2.19526275532e-21
2.19526275532e-21
2.19526275532e-21
2.19526275532e-21
2.19526275532e-21
2.19526275532e-21
2.19526275532e-21
2.19526275532e-21
2.19526275532e-21
2.19526275532e-21
2.19526275532e-21
2.19526275537e-21
2.19526275814e-21
2.19526291694e-21
2.19527172671e-21
2.19576525142e-21
2.20731546941e-21
9.15141502776e-09
0.027147689565
0.00102187383265
5.65835815914e-06
1.66808317801e-06
8.89531190265e-07
6.73022122132e-07
6.06717534319e-07
5.86052729389e-07
5.79970109305e-07
5.7724196377e-07
5.75692459744e-07
5.74321263471e-07
5.72997463753e-07
5.71670893644e-07
5.69906552706e-07
5.68522524559e-07
5.6709614569e-07
5.65630049139e-07
5.6410357803e-07
5.6250810917e-07
5.60836700193e-07
5.59083485097e-07
5.57278328132e-07
5.55385742034e-07
5.53403047468e-07
5.51330798787e-07
5.49174268578e-07
5.46962253843e-07
5.44673718402e-07
5.42318175297e-07
5.39906761717e-07
5.37469377763e-07
5.35009132429e-07
5.32538630464e-07
5.30080269744e-07
5.27676299374e-07
5.25342183277e-07
5.23077119316e-07
5.20905680161e-07
5.18852555775e-07
5.16956370112e-07
5.15220675333e-07
5.13658510579e-07
5.12285270456e-07
5.11116573986e-07
5.10164861663e-07
5.09438334649e-07
5.08941228619e-07
5.08363999819e-07
2.19526275505e-21
2.19526275505e-21
2.19526275505e-21
2.19526275505e-21
2.19526275505e-21
2.19526275505e-21
2.19526275505e-21
2.19526275505e-21
2.19526275505e-21
2.19526275506e-21
2.19526275506e-21
2.19526275506e-21
2.19526275506e-21
2.19526275506e-21
2.19526275523e-21
2.1952627651e-21
2.19526332998e-21
2.19529444403e-21
2.19703662105e-21
2.22459647319e-21
1.09569669341e-05
0.00477170027512
8.71019197415e-05
3.63465784184e-06
1.3437567512e-06
8.16469075255e-07
6.63728828214e-07
6.15797760376e-07
6.00447739563e-07
5.95135671628e-07
5.92417806585e-07
5.90206771093e-07
5.88112873158e-07
5.86057534694e-07
5.84043159476e-07
5.82031655481e-07
5.80011695821e-07
5.77977046705e-07
5.75527011244e-07
5.73469497988e-07
5.71362445234e-07
5.69201774346e-07
5.66990174668e-07
5.64727556473e-07
5.62395459608e-07
5.59992280109e-07
5.57523308593e-07
5.55024166467e-07
5.52460821269e-07
5.49840430987e-07
5.47176493801e-07
5.44505162319e-07
5.41805678664e-07
5.39095259424e-07
5.36403944519e-07
5.33770481998e-07
5.31188369575e-07
5.28668366303e-07
5.26232099309e-07
5.23943754428e-07
5.21798244668e-07
5.1981050442e-07
5.17986776856e-07
5.16731824148e-07
5.15292881225e-07
5.14081459005e-07
5.13098262687e-07
5.12350380727e-07
5.11844155362e-07
5.10903326941e-07
2.19526275485e-21
2.19526275485e-21
2.19526275485e-21
2.19526275485e-21
2.19526275485e-21
2.19526275485e-21
2.19526275485e-21
2.19526275485e-21
2.19526275485e-21
2.19526275485e-21
2.19526275485e-21
2.19526275485e-21
2.19526275485e-21
2.19526275486e-21
2.19526275533e-21
2.19526278197e-21
2.19526429787e-21
2.19534711425e-21
2.19988842051e-21
2.25573113248e-21
0.00382526139033
0.00251416943532
1.63766421319e-05
2.65514270015e-06
1.16317930547e-06
7.83685638995e-07
6.70617427049e-07
6.34346621423e-07
6.21739512556e-07
6.1628956606e-07
6.12759669729e-07
6.09599725958e-07
6.0655935814e-07
6.03615528283e-07
6.00715690431e-07
5.97846949033e-07
5.95036635957e-07
5.92253541881e-07
5.89469413459e-07
5.86678447556e-07
5.83893667291e-07
5.81080721697e-07
5.78232204111e-07
5.75366176681e-07
5.72481084095e-07
5.69547865e-07
5.6656649028e-07
5.63564479284e-07
5.60525073047e-07
5.57451368316e-07
5.54370584731e-07
5.51310938647e-07
5.48247646209e-07
5.45197239636e-07
5.42212362482e-07
5.39288533966e-07
5.36439706031e-07
5.33683848879e-07
5.31061096016e-07
5.285678318e-07
5.26228909861e-07
5.24066366928e-07
5.22114901912e-07
5.20380178145e-07
5.18861940653e-07
5.17573315208e-07
5.16525614838e-07
5.1572564973e-07
5.15176730676e-07
5.14598961573e-07
2.19526275469e-21
2.19526275469e-21
2.19526275469e-21
2.19526275469e-21
2.19526275469e-21
2.19526275469e-21
2.19526275469e-21
2.19526275469e-21
2.19526275469e-21
2.19526275469e-21
2.19526275469e-21
2.19526275469e-21
2.19526275469e-21
2.19526275471e-21
2.19526275604e-21
2.19526283191e-21
2.19526708819e-21
2.19550365454e-21
2.20369562433e-21
2.95691710266e-09
0.0221634307124
0.00158924087574
8.32508619906e-06
2.08826098617e-06
1.05563253553e-06
7.75284786492e-07
6.88480465811e-07
6.5992955776e-07
6.48803760498e-07
6.42573414973e-07
6.37876078208e-07
6.33528983589e-07
6.29325404067e-07
6.25276355025e-07
6.21330228176e-07
6.17453154659e-07
6.13683236911e-07
6.09956179088e-07
6.06266713472e-07
6.02627088615e-07
5.9899749034e-07
5.95381883064e-07
5.91808702949e-07
5.88221975424e-07
5.8462216808e-07
5.81030188638e-07
5.77416544874e-07
5.73789577156e-07
5.70202590286e-07
5.66607587068e-07
5.63016288063e-07
5.59470936101e-07
5.55952850491e-07
5.52475626487e-07
5.49105318866e-07
5.4581849761e-07
5.42631182804e-07
5.39586104827e-07
5.36697345683e-07
5.33964748912e-07
5.31407442888e-07
5.29053543277e-07
5.27314365454e-07
5.25413134044e-07
5.23758029551e-07
5.22355407939e-07
5.21214835941e-07
5.20343696483e-07
5.19744734822e-07
5.19159054372e-07
2.19526275455e-21
2.19526275455e-21
2.19526275455e-21
2.19526275456e-21
2.19526275456e-21
2.19526275456e-21
2.19526275456e-21
2.19526275456e-21
2.19526275456e-21
2.19526275456e-21
2.19526275456e-21
2.19526275456e-21
2.19526275456e-21
2.19526275463e-21
2.19526275842e-21
2.19526297489e-21
2.19527490481e-21
2.195939929e-21
2.20980358243e-21
1.28110362089e-08
0.0255436300061
0.000823190137364
5.3767142087e-06
1.74362512739e-06
9.94414922457e-07
7.83057140595e-07
7.15371917093e-07
6.91471343881e-07
6.80896856722e-07
6.73988792065e-07
6.67466381137e-07
6.61722178137e-07
6.56201355543e-07
6.50826019391e-07
6.45653682619e-07
6.40602340304e-07
6.35674553769e-07
6.30844968462e-07
6.26104160689e-07
6.21478165111e-07
6.1689448064e-07
6.12391556333e-07
6.07925579959e-07
6.0348686994e-07
5.99092052931e-07
5.94706491403e-07
5.90375042516e-07
5.86077341062e-07
5.82217508226e-07
5.77989822628e-07
5.73801817728e-07
5.69669375978e-07
5.65650240692e-07
5.61702649316e-07
5.57859887251e-07
5.54155705794e-07
5.50579072754e-07
5.47159306235e-07
5.43932507017e-07
5.40892582642e-07
5.38057791083e-07
5.35470987925e-07
5.33141333445e-07
5.31066980109e-07
5.29260749043e-07
5.27731929398e-07
5.26488806289e-07
5.25541609411e-07
5.24891055865e-07
5.24276883676e-07
2.19526275445e-21
2.19526275445e-21
2.19526275445e-21
2.19526275445e-21
2.19526275445e-21
2.19526275445e-21
2.19526275445e-21
2.19526275445e-21
2.19526275445e-21
2.19526275445e-21
2.19526275445e-21
2.19526275445e-21
2.19526275445e-21
2.19526275465e-21
2.1952627659e-21
2.19526340658e-21
2.19529851239e-21
2.19724715838e-21
2.22712962324e-21
1.38216746354e-05
0.00449295826836
8.47327054662e-05
3.84438866311e-06
1.5138735947e-06
9.64726107539e-07
8.03203680851e-07
7.49315332208e-07
7.28646425938e-07
7.17574567589e-07
7.09243053365e-07
7.01633708627e-07
6.94340967437e-07
6.87302275365e-07
6.80502748351e-07
6.73921732455e-07
6.67545326768e-07
6.61328789719e-07
6.55273490516e-07
6.49337172863e-07
6.4356525843e-07
6.37898271977e-07
6.32332243747e-07
6.26843821003e-07
6.21449464951e-07
6.16147972942e-07
6.1090447206e-07
6.05753716233e-07
6.00647984275e-07
5.95632838344e-07
5.90676378604e-07
5.85830924472e-07
5.81093734227e-07
5.76453569262e-07
5.71954885837e-07
5.67578096226e-07
5.63378817904e-07
5.59365757681e-07
5.55947197913e-07
5.52336142066e-07
5.48973518063e-07
5.45847439187e-07
5.42977858503e-07
5.40411883343e-07
5.38130408021e-07
5.36145887469e-07
5.34467682113e-07
5.33103194746e-07
5.32058479425e-07
5.31341673893e-07
5.3069752905e-07
2.19526275435e-21
2.19526275435e-21
2.19526275436e-21
2.19526275436e-21
2.19526275436e-21
2.19526275436e-21
2.19526275436e-21
2.19526275436e-21
2.19526275436e-21
2.19526275436e-21
2.19526275436e-21
2.19526275436e-21
2.19526275437e-21
2.19526275487e-21
2.19526278326e-21
2.19526438341e-21
2.1953510764e-21
2.20004980084e-21
2.25757595178e-21
0.00390060025896
0.00254889837238
1.8269295334e-05
2.96864677352e-06
1.36679320737e-06
9.59330047485e-07
8.34736869671e-07
7.90753431176e-07
7.71099130755e-07
7.59235021103e-07
7.49087049572e-07
7.39592173169e-07
7.3050179777e-07
7.21768284691e-07
7.13316327467e-07
7.05122363957e-07
6.97241490008e-07
6.89574446453e-07
6.82105417227e-07
6.7488265889e-07
6.67820363929e-07
6.60963084394e-07
6.54227206027e-07
6.47637212914e-07
6.41171905046e-07
6.34860677641e-07
6.28645911456e-07
6.23018369429e-07
6.1703368981e-07
6.11172480419e-07
6.05426868165e-07
5.99850364698e-07
5.94393021517e-07
5.8910516344e-07
5.83960018653e-07
5.79040581703e-07
5.74308530013e-07
5.69796424228e-07
5.65533930604e-07
5.615081719e-07
5.57758092128e-07
5.54292118928e-07
5.51115483395e-07
5.48248949366e-07
5.4617447157e-07
5.43990376743e-07
5.42151030567e-07
5.40657848003e-07
5.39513730147e-07
5.38718489731e-07
5.38028568106e-07
2.19526275428e-21
2.19526275428e-21
2.19526275428e-21
2.19526275428e-21
2.19526275428e-21
2.19526275428e-21
2.19526275428e-21
2.19526275428e-21
2.19526275428e-21
2.19526275428e-21
2.19526275428e-21
2.19526275428e-21
2.19526275431e-21
2.19526275576e-21
2.19526283832e-21
2.19526742207e-21
2.19551950886e-21
2.20405364892e-21
3.13267354796e-09
0.0222469956422
0.00162771798366
9.22867900448e-06
2.39752238876e-06
1.28096754619e-06
9.74806342648e-07
8.76735030538e-07
8.3951692702e-07
8.20029149121e-07
8.06178740722e-07
7.93785722915e-07
7.82071155415e-07
7.70844584175e-07
7.60096352556e-07
7.49741333016e-07
7.39739791574e-07
7.30137774741e-07
7.20862120122e-07
7.1185884223e-07
7.03106974693e-07
6.95127184245e-07
6.86880297343e-07
6.78875914735e-07
6.71053027809e-07
6.63394315171e-07
6.55967897863e-07
6.4868768684e-07
6.41580354087e-07
6.34637111217e-07
6.27885932742e-07
6.21311072154e-07
6.14908173907e-07
6.09139854667e-07
6.03129400131e-07
5.9733448959e-07
5.91759494929e-07
5.86438177565e-07
5.81398692683e-07
5.76618557111e-07
5.72165670987e-07
5.68005078569e-07
5.64164711275e-07
5.60673505019e-07
5.57523905887e-07
5.54730501391e-07
5.52329458396e-07
5.50315096097e-07
5.48679366017e-07
5.47425915232e-07
5.46554735493e-07
5.45833981581e-07
2.19526275421e-21
2.19526275421e-21
2.19526275421e-21
2.19526275421e-21
2.19526275421e-21
2.19526275421e-21
2.19526275421e-21
2.19526275421e-21
2.19526275421e-21
2.19526275421e-21
2.19526275421e-21
2.19526275422e-21
2.19526275429e-21
2.19526275876e-21
2.19526301e-21
2.19527669299e-21
2.19602941065e-21
2.21114196479e-21
1.41927781511e-08
0.0245964158886
0.000829356555924
5.88267604609e-06
2.02994841234e-06
1.23552399724e-06
1.00672772189e-06
9.287224817e-07
8.95063817944e-07
8.74760585077e-07
8.5839079604e-07
8.43316067565e-07
8.29020473258e-07
8.1538491888e-07
8.02308551935e-07
7.90326052798e-07
7.78313992979e-07
7.66734676928e-07
7.55598176344e-07
7.4485971818e-07
7.3447087852e-07
7.24407944554e-07
7.14680033044e-07
7.05232107843e-07
6.96037691614e-07
6.87138727653e-07
6.78942562762e-07
6.7051197519e-07
6.62323568564e-07
6.5434027305e-07
6.46585429016e-07
6.39064489259e-07
6.3178649535e-07
6.24768548075e-07
6.17978415885e-07
6.11464636832e-07
6.05673719682e-07
5.99756196761e-07
5.94120536197e-07
5.88822659545e-07
5.83845237133e-07
5.79241186334e-07
5.75021889993e-07
5.71169156521e-07
5.67723763686e-07
5.64685275265e-07
5.62048769206e-07
5.59823663149e-07
5.58017707254e-07
5.5664386875e-07
5.55688187113e-07
5.54928618527e-07
2.19526275415e-21
2.19526275415e-21
2.19526275415e-21
2.19526275415e-21
2.19526275416e-21
2.19526275416e-21
2.19526275416e-21
2.19526275416e-21
2.19526275416e-21
2.19526275416e-21
2.19526275416e-21
2.19526275416e-21
2.19526275443e-21
2.19526276943e-21
2.195263611e-21
2.19530907287e-21
2.19778610045e-21
2.23336531417e-21
9.78621635035e-05
0.00390681852962
7.00903423227e-05
4.16352496486e-06
1.79132897566e-06
1.2225411283e-06
1.05160572261e-06
9.88696279179e-07
9.56946702121e-07
9.34536174229e-07
9.15342980346e-07
8.97331694661e-07
8.80787752212e-07
8.64455564426e-07
8.4887612811e-07
8.3393636387e-07
8.19637848261e-07
8.05914234201e-07
7.92729205786e-07
7.80064225732e-07
7.68371593668e-07
7.56597695382e-07
7.45202462005e-07
7.34198823028e-07
7.23543851275e-07
7.13190415883e-07
7.03221680966e-07
6.93545140862e-07
6.84624904171e-07
6.7553021284e-07
6.66737637836e-07
6.58214261935e-07
6.49977978858e-07
6.42066814408e-07
6.34451614102e-07
6.27193766549e-07
6.2023970629e-07
6.13629196441e-07
6.07852912087e-07
6.01998718461e-07
5.96520281769e-07
5.91469677769e-07
5.8681279416e-07
5.82591953164e-07
5.788026707e-07
5.75448122083e-07
5.72555680896e-07
5.70139390231e-07
5.6817661194e-07
5.66670145286e-07
5.65619238519e-07
5.648107417e-07
2.1952627541e-21
2.1952627541e-21
2.1952627541e-21
2.19526275411e-21
2.19526275411e-21
2.19526275411e-21
2.19526275411e-21
2.19526275411e-21
2.19526275411e-21
2.19526275411e-21
2.19526275411e-21
2.19526275412e-21
2.19526275486e-21
2.19526279582e-21
2.19526505801e-21
2.19538536855e-21
2.2017069385e-21
2.27548799094e-21
0.010781425498
0.00223969932085
1.57724415004e-05
3.18276895711e-06
1.64758530934e-06
1.24018189775e-06
1.11143038992e-06
1.05747668258e-06
1.02553263203e-06
1.00064118688e-06
9.77954524888e-07
9.56584898385e-07
9.36272657995e-07
9.16960787322e-07
8.98497154223e-07
8.80927096775e-07
8.64651230393e-07
8.48578341919e-07
8.33174352915e-07
8.18347545983e-07
8.04150760923e-07
7.90500839535e-07
7.77881186232e-07
7.65164767079e-07
7.52910501843e-07
7.41092098595e-07
7.29662770325e-07
7.18590521288e-07
7.07945184487e-07
6.97656364139e-07
6.88229030273e-07
6.78615324321e-07
6.69412401796e-07
6.60565133168e-07
6.52085764612e-07
6.43986674364e-07
6.36264303087e-07
6.28976084708e-07
6.2258225553e-07
6.16129607221e-07
6.10124192836e-07
6.04574099214e-07
5.99474479791e-07
5.94857623332e-07
5.90707560833e-07
5.8706308007e-07
5.83930688676e-07
5.81288014335e-07
5.79139747351e-07
5.77488430536e-07
5.76335092478e-07
5.7548602498e-07
2.19526275406e-21
2.19526275406e-21
2.19526275406e-21
2.19526275406e-21
2.19526275406e-21
2.19526275406e-21
2.19526275406e-21
2.19526275406e-21
2.19526275406e-21
2.19526275406e-21
2.19526275406e-21
2.19526275412e-21
2.19526275713e-21
2.19526292477e-21
2.1952719936e-21
2.1957637542e-21
2.20767932704e-21
8.10751880464e-09
0.026944592049
0.00127547999168
8.1415562726e-06
2.59933847516e-06
1.57481231631e-06
1.28594719875e-06
1.18424144924e-06
1.13511602647e-06
1.10107818985e-06
1.07210558766e-06
1.04531894006e-06
1.02000633276e-06
9.96077675253e-07
9.73970554738e-07
9.52383647927e-07
9.31813098578e-07
9.12255916738e-07
8.93552160145e-07
8.76277545928e-07
8.59169789472e-07
8.42801110694e-07
8.27059203525e-07
8.11972244447e-07
7.97438627982e-07
7.84054888649e-07
7.7061442788e-07
7.57650549714e-07
7.45151244575e-07
7.33135600262e-07
7.21560544588e-07
7.10944240064e-07
7.00232317994e-07
6.89963988109e-07
6.80121641413e-07
6.70749266897e-07
6.61792822048e-07
6.53263923156e-07
6.45252482701e-07
6.38227270902e-07
6.31135814694e-07
6.24564007393e-07
6.18500431781e-07
6.129540832e-07
6.07936383442e-07
6.034315354e-07
5.99483880727e-07
5.96064923716e-07
5.93179369748e-07
5.90833757323e-07
5.89052598252e-07
5.87802647653e-07
5.86895664169e-07
2.19526275402e-21
2.19526275402e-21
2.19526275402e-21
2.19526275402e-21
2.19526275402e-21
2.19526275402e-21
2.19526275402e-21
2.19526275402e-21
2.19526275402e-21
2.19526275402e-21
2.19526275403e-21
2.19526275424e-21
2.19526276603e-21
2.19526341673e-21
2.19529809102e-21
2.19716140389e-21
2.22639302791e-21
1.00223489436e-05
0.0053849879227
0.000262471185034
5.20990903786e-06
2.24304872279e-06
1.55683207099e-06
1.3505418343e-06
1.26811360523e-06
1.21987997714e-06
1.18261906764e-06
1.14896544114e-06
1.11757114592e-06
1.08863247703e-06
1.06063628703e-06
1.03420830859e-06
1.00908447478e-06
9.85949434784e-07
9.63296360487e-07
9.4174767035e-07
9.21241869469e-07
9.01634024519e-07
8.83511623157e-07
8.65607569777e-07
8.48461782409e-07
8.31986140292e-07
8.16189213298e-07
8.01624162859e-07
7.87026756192e-07
7.73016271704e-07
7.59576660939e-07
7.46651643608e-07
7.34229731917e-07
7.22932740126e-07
7.11529568506e-07
7.00678365525e-07
6.90335991372e-07
6.80487716281e-07
6.71144493455e-07
6.62362871836e-07
6.54655525177e-07
6.46965395068e-07
6.39817063606e-07
6.33224457624e-07
6.27189156865e-07
6.21729947914e-07
6.1684793811e-07
6.1259281521e-07
6.08903384063e-07
6.05784403264e-07
6.03261931765e-07
6.01328392125e-07
5.99968307087e-07
5.99000384115e-07
2.19526275399e-21
2.19526275399e-21
2.19526275399e-21
2.19526275399e-21
2.19526275399e-21
2.19526275399e-21
2.19526275399e-21
2.19526275399e-21
2.19526275399e-21
2.19526275399e-21
2.195262754e-21
2.19526275477e-21
2.1952627967e-21
2.19526507977e-21
2.19538498097e-21
2.20159443652e-21
2.2740141847e-21
0.00878718762689
0.00239278238368
2.01323628677e-05
3.79737795351e-06
2.04248668173e-06
1.58364319188e-06
1.43322981261e-06
1.36166420677e-06
1.31162146914e-06
1.26950642878e-06
1.23136348253e-06
1.19491180902e-06
1.16060486406e-06
1.12830679222e-06
1.09846275672e-06
1.06960474495e-06
1.04227988544e-06
1.01703714103e-06
9.92445151045e-07
9.69043341901e-07
9.46788574913e-07
9.26165730619e-07
9.05924691346e-07
8.86563347342e-07
8.68028251274e-07
8.50315610684e-07
8.33951183798e-07
8.17641304413e-07
8.02037756859e-07
7.87102021721e-07
7.72792623016e-07
7.59656905071e-07
7.46550141514e-07
7.34039318426e-07
7.22105276596e-07
7.10723552142e-07
6.99989600695e-07
6.89836515849e-07
6.80826296166e-07
6.71855524069e-07
6.63492296095e-07
6.55717940905e-07
6.48600458994e-07
6.42085240357e-07
6.36218879766e-07
6.30962779158e-07
6.26376392353e-07
6.22396859462e-07
6.19563874412e-07
6.16829662896e-07
6.14735094612e-07
6.13255584333e-07
6.12225829533e-07
2.19526275396e-21
2.19526275396e-21
2.19526275396e-21
2.19526275396e-21
2.19526275396e-21
2.19526275396e-21
2.19526275396e-21
2.19526275396e-21
2.19526275396e-21
2.19526275396e-21
2.19526275403e-21
2.19526275787e-21
2.19526296784e-21
2.19527413336e-21
2.19586910864e-21
2.20925297375e-21
9.74807179476e-09
0.0271831957581
0.00125538024889
8.85758076147e-06
3.03940202497e-06
1.95726882487e-06
1.65062896738e-06
1.53358191836e-06
1.46490703185e-06
1.41129719871e-06
1.36286549759e-06
1.31790665026e-06
1.27590809258e-06
1.23719909743e-06
1.20008876267e-06
1.16519106663e-06
1.13295231649e-06
1.10188553701e-06
1.07241317739e-06
1.04529945488e-06
1.01883461176e-06
9.93744138054e-07
9.69848158962e-07
9.47787007973e-07
9.26105467402e-07
9.05393186893e-07
8.85651781233e-07
8.67402782549e-07
8.49349343757e-07
8.32094320369e-07
8.15552014423e-07
7.99781476354e-07
7.85354585779e-07
7.70941655695e-07
7.5725112655e-07
7.44241734339e-07
7.31898848335e-07
7.20212270617e-07
7.09756809204e-07
6.99391136436e-07
6.89706711502e-07
6.80668541055e-07
6.72289604883e-07
6.64622393141e-07
6.57613806301e-07
6.51313410902e-07
6.46253614506e-07
6.41297389482e-07
6.37032991905e-07
6.33429671644e-07
6.30495112738e-07
6.28245738621e-07
6.26650373691e-07
6.2555732307e-07
2.19526275393e-21
2.19526275393e-21
2.19526275393e-21
2.19526275393e-21
2.19526275393e-21
2.19526275393e-21
2.19526275393e-21
2.19526275393e-21
2.19526275393e-21
2.19526275394e-21
2.19526275429e-21
2.19526277338e-21
2.19526381017e-21
2.19531817128e-21
2.19816997042e-21
2.23795389915e-21
0.000142824979842
0.00395863745862
0.000130746064315
5.46742121688e-06
2.62623755863e-06
1.95406426633e-06
1.74454690403e-06
1.64596295699e-06
1.57585432886e-06
1.51566680541e-06
1.460282604e-06
1.40960918455e-06
1.36147098199e-06
1.31647549968e-06
1.27500566806e-06
1.23531599613e-06
1.19880566678e-06
1.16367623021e-06
1.13049574376e-06
1.09994454774e-06
1.07026870536e-06
1.04221835046e-06
1.01549594956e-06
9.90895099602e-07
9.66804266561e-07
9.43859331556e-07
9.21969425416e-07
9.01831317428e-07
8.81899798162e-07
8.62905134614e-07
8.44798247713e-07
8.28191212005e-07
8.11730558838e-07
7.96020884339e-07
7.81133658426e-07
7.66998322512e-07
7.54226791153e-07
7.4158117249e-07
7.29685159413e-07
7.18518953777e-07
7.08079533351e-07
6.98380783326e-07
6.89429202289e-07
6.81795873677e-07
6.7430806564e-07
6.67535048062e-07
6.61497855286e-07
6.56168354184e-07
6.51618665308e-07
6.47774449479e-07
6.44636807788e-07
6.4220863293e-07
6.40491827298e-07
6.39327527951e-07
2.1952627539e-21
2.1952627539e-21
2.1952627539e-21
2.1952627539e-21
2.1952627539e-21
2.19526275391e-21
2.19526275391e-21
2.19526275391e-21
2.19526275391e-21
2.19526275394e-21
2.19526275572e-21
2.19526285243e-21
2.1952680034e-21
2.19553849685e-21
2.20473923174e-21
2.752451496e-09
0.0203923881429
0.00190144382957
1.53309989071e-05
3.99652325559e-06
2.43554050046e-06
2.01407370831e-06
1.86123738607e-06
1.76830591886e-06
1.69261731113e-06
1.62458615075e-06
1.56240044411e-06
1.50390723861e-06
1.45015239256e-06
1.39921280547e-06
1.35236509895e-06
1.30772968492e-06
1.26584656645e-06
1.2272631329e-06
1.19014813361e-06
1.15525784059e-06
1.12297896093e-06
1.09178200181e-06
1.0622431518e-06
1.03497143655e-06
1.00832921954e-06
9.83072175588e-07
9.59763671345e-07
9.36850016132e-07
9.15085687176e-07
8.94352397101e-07
8.75288626139e-07
8.5650413851e-07
8.38643836954e-07
8.21653748337e-07
8.05510378991e-07
7.90925222223e-07
7.76486928141e-07
7.62878875869e-07
7.50086991737e-07
7.38109807392e-07
7.26910662639e-07
7.17201446829e-07
7.07604005381e-07
6.98831032709e-07
6.90830982714e-07
6.836055987e-07
6.77191606926e-07
6.71556635641e-07
6.66681894014e-07
6.62592149219e-07
6.59884959596e-07
6.5728558111e-07
6.55425970294e-07
6.54171104016e-07
2.19526275388e-21
2.19526275388e-21
2.19526275388e-21
2.19526275388e-21
2.19526275388e-21
2.19526275388e-21
2.19526275388e-21
2.19526275388e-21
2.19526275389e-21
2.19526275409e-21
2.1952627652e-21
2.19526336345e-21
2.19529452039e-21
2.19692029827e-21
2.22329840892e-21
4.4397620197e-06
0.00922630198668
0.000670971541549
7.47888781694e-06
3.28953459984e-06
2.39159444803e-06
2.12248668769e-06
1.99487078658e-06
1.89947123411e-06
1.81544341517e-06
1.73829563263e-06
1.66791652959e-06
1.60179434093e-06
1.54122319799e-06
1.48404263657e-06
1.4315068466e-06
1.38167545694e-06
1.33495315427e-06
1.29204628508e-06
1.2508628881e-06
1.21302369979e-06
1.17653221987e-06
1.14209501243e-06
1.11035745134e-06
1.07957358597e-06
1.05041337959e-06
1.02355938654e-06
9.97262687747e-07
9.72317281776e-07
9.48654874687e-07
9.26876558499e-07
9.05446211215e-07
8.85142353145e-07
8.65858081874e-07
8.48281270444e-07
8.3093705516e-07
8.14540518816e-07
7.99070167901e-07
7.84475006836e-07
7.71503147065e-07
7.5870332218e-07
7.46777889946e-07
7.35725990509e-07
7.25551262996e-07
7.16220052178e-07
7.07729966004e-07
7.00764068267e-07
6.93942906291e-07
6.87968854858e-07
6.82807677839e-07
6.78439485117e-07
6.74898384965e-07
6.72140742807e-07
6.70153804362e-07
6.68822429532e-07
2.19526275386e-21
2.19526275386e-21
2.19526275386e-21
2.19526275386e-21
2.19526275386e-21
2.19526275386e-21
2.19526275386e-21
2.19526275386e-21
2.19526275388e-21
2.195262755e-21
2.19526281445e-21
2.19526597391e-21
2.19542933421e-21
2.20309009089e-21
4.56441467919e-10
0.0128602126535
0.00233329308443
2.4848440795e-05
4.96210660176e-06
2.96328524006e-06
2.44556786293e-06
2.25766362786e-06
2.13762862992e-06
2.03412165544e-06
1.93995370009e-06
1.85432444784e-06
1.77430874658e-06
1.70131989584e-06
1.6327819074e-06
1.57000750049e-06
1.511667337e-06
1.45641330813e-06
1.40476038635e-06
1.35736717056e-06
1.31202773612e-06
1.27037060421e-06
1.23039556337e-06
1.19270967547e-06
1.15798538144e-06
1.12442064706e-06
1.09270017882e-06
1.06342271352e-06
1.03493570907e-06
1.00789361468e-06
9.83113214377e-07
9.58821897756e-07
9.35767056609e-07
9.13935699714e-07
8.93979320517e-07
8.74357796128e-07
8.55808757047e-07
8.3829256085e-07
8.22544069559e-07
8.07021276018e-07
7.92437644559e-07
7.78849808275e-07
7.66217064213e-07
7.54507943037e-07
7.44449589548e-07
7.34582717857e-07
7.25614429023e-07
7.17530186447e-07
7.10353495183e-07
7.04031058067e-07
6.98583239241e-07
6.93988374621e-07
6.9021390269e-07
6.8796287866e-07
6.85830409339e-07
6.84414498234e-07
2.19526275384e-21
2.19526275384e-21
2.19526275384e-21
2.19526275384e-21
2.19526275384e-21
2.19526275384e-21
2.19526275384e-21
2.19526275385e-21
2.19526275402e-21
2.19526276347e-21
2.19526326364e-21
2.19528896033e-21
2.19661071723e-21
2.21922324962e-21
2.19340011833e-08
0.0177836797077
0.000924581036345
9.1598715598e-06
3.92843508647e-06
2.88377510776e-06