/*--------------------------------*- C++ -*----------------------------------*\
| =========                 |                                                 |
| \\      /  F ield         | foam-extend: Open Source CFD                    |
|  \\    /   O peration     | Version:     4.1                                |
|   \\  /    A nd           | Web:         http://www.foam-extend.org         |
|    \\/     M anipulation  |                                                 |
\*---------------------------------------------------------------------------*/
FoamFile
{
    version     2.0;
    format      ascii;
    class       volScalarField;
    location    "0.001";
    object      NOPlus;
}
// * * * * * * * * * * * * * * * * * * * * * * * * * * * * * * * * * * * * * //

dimensions      [0 0 0 0 0 0 0];

internalField   nonuniform List<scalar> 
8400
(
1.21417155908e-66
1.21417155908e-66
1.21417155909e-66
1.21417155909e-66
1.2141715591e-66
1.2141715591e-66
1.21417155911e-66
1.21417155911e-66
1.21417155911e-66
1.21417155912e-66
1.21417155912e-66
1.21417155913e-66
1.21417155913e-66
1.21417155913e-66
1.21417155914e-66
1.21417155915e-66
1.2141715595e-66
1.21417157924e-66
1.21417269899e-66
1.21423363823e-66
1.21758320738e-66
1.26070796409e-66
8.26616758092e-15
0.000184173399506
6.42004206778e-05
1.79474547321e-05
9.8626503589e-06
7.25969940311e-06
6.37407078833e-06
6.06803180545e-06
5.96124279973e-06
5.92062001848e-06
5.89713760582e-06
5.8792090342e-06
5.8636583704e-06
5.84954258554e-06
5.83644361255e-06
5.82412384907e-06
5.81235586443e-06
5.80097264429e-06
5.78982095979e-06
5.77877343193e-06
5.76770971471e-06
5.75652142588e-06
5.74520665982e-06
5.73361734616e-06
5.72166839926e-06
5.70929995749e-06
5.69643252854e-06
5.68578538449e-06
5.67194406086e-06
5.65775026076e-06
5.64311485004e-06
5.62808549799e-06
5.61273488658e-06
5.59721543307e-06
5.58165623668e-06
5.56614322854e-06
5.55083395008e-06
5.53590562095e-06
5.52157053503e-06
5.50799331616e-06
5.49534307332e-06
5.48380453267e-06
5.47355086004e-06
5.46473971818e-06
5.45754674366e-06
5.45205070073e-06
5.44828504273e-06
5.44165792332e-06
1.21417155764e-66
1.21417155764e-66
1.21417155764e-66
1.21417155764e-66
1.21417155764e-66
1.21417155764e-66
1.21417155765e-66
1.21417155765e-66
1.21417155765e-66
1.21417155765e-66
1.21417155765e-66
1.21417155765e-66
1.21417155766e-66
1.21417155766e-66
1.21417155766e-66
1.21417155769e-66
1.21417155924e-66
1.21417164804e-66
1.21417658961e-66
1.21445144312e-66
1.22271112487e-66
6.5889299074e-27
1.58444311043e-08
0.000456361875918
3.25551185907e-05
1.34656733287e-05
8.31945409537e-06
6.62824772206e-06
6.05831807551e-06
5.87414325475e-06
5.82004444171e-06
5.79801291207e-06
5.78669685891e-06
5.77694108697e-06
5.76742752497e-06
5.757894357e-06
5.74555128458e-06
5.73577537342e-06
5.72578946058e-06
5.71558692441e-06
5.70514142805e-06
5.6944134458e-06
5.68348119746e-06
5.67216641607e-06
5.66043791132e-06
5.64826423913e-06
5.63561585974e-06
5.62255747802e-06
5.60898441486e-06
5.59490078559e-06
5.58032699164e-06
5.5653298581e-06
5.54997420869e-06
5.53430354492e-06
5.51840411472e-06
5.50240460122e-06
5.48654666022e-06
5.47084007284e-06
5.45545764489e-06
5.44057938224e-06
5.42638945683e-06
5.4130176647e-06
5.40060885617e-06
5.38934814917e-06
5.3794027415e-06
5.37091052567e-06
5.36401927946e-06
5.3587516412e-06
5.35513896167e-06
5.3494992227e-06
1.21417155691e-66
1.21417155691e-66
1.21417155691e-66
1.21417155691e-66
1.21417155691e-66
1.21417155691e-66
1.21417155691e-66
1.21417155692e-66
1.21417155692e-66
1.21417155692e-66
1.21417155692e-66
1.21417155692e-66
1.21417155692e-66
1.21417155692e-66
1.21417155693e-66
1.21417155708e-66
1.21417156615e-66
1.21417208428e-66
1.21420057172e-66
1.21579550077e-66
1.24104132541e-66
1.83118486086e-18
5.62776147833e-05
0.000147930206287
2.07658662883e-05
1.04803456362e-05
7.29721792742e-06
6.23237259258e-06
5.88671766626e-06
5.78120734942e-06
5.75262681811e-06
5.7435944727e-06
5.73790578945e-06
5.73257086463e-06
5.7242040986e-06
5.71806335066e-06
5.7114088189e-06
5.70425734694e-06
5.69661670021e-06
5.68857684012e-06
5.68001200952e-06
5.67090408082e-06
5.66122568418e-06
5.65096019333e-06
5.64012727268e-06
5.62875162555e-06
5.61676337193e-06
5.60418246246e-06
5.58832389692e-06
5.57457217631e-06
5.56028122699e-06
5.54552549143e-06
5.53038370047e-06
5.51496301772e-06
5.4994813604e-06
5.48389956907e-06
5.46834805125e-06
5.45300800611e-06
5.43815955679e-06
5.42388312588e-06
5.41025601279e-06
5.39738401816e-06
5.38546845615e-06
5.37474713135e-06
5.36543218203e-06
5.35744990074e-06
5.35331924579e-06
5.34577319651e-06
5.34231486008e-06
5.33724228298e-06
1.21417155644e-66
1.21417155645e-66
1.21417155645e-66
1.21417155645e-66
1.21417155645e-66
1.21417155645e-66
1.21417155645e-66
1.21417155645e-66
1.21417155645e-66
1.21417155645e-66
1.21417155645e-66
1.21417155645e-66
1.21417155645e-66
1.21417155645e-66
1.21417155647e-66
1.21417155704e-66
1.2141715897e-66
1.21417344311e-66
1.21427441885e-66
1.21975772327e-66
1.28451143367e-66
1.47440843774e-10
0.000314740052623
4.34211935313e-05
1.53172973303e-05
8.87232629973e-06
6.76755877414e-06
6.06910771484e-06
5.84488191672e-06
5.78076621366e-06
5.76078754749e-06
5.75294813097e-06
5.74690134585e-06
5.74102329715e-06
5.73496857057e-06
5.72585470809e-06
5.71905574152e-06
5.71179043791e-06
5.7040525025e-06
5.69584647938e-06
5.68719212164e-06
5.67797294628e-06
5.66815839623e-06
5.65772399708e-06
5.64665535989e-06
5.63499635987e-06
5.62274033118e-06
5.60985446381e-06
5.59635654343e-06
5.58228525083e-06
5.56773044208e-06
5.55275253325e-06
5.53742153153e-06
5.5218334627e-06
5.50613388951e-06
5.49052363068e-06
5.47501524177e-06
5.45976734269e-06
5.44494090949e-06
5.4307276602e-06
5.41724217641e-06
5.40461014774e-06
5.39297285221e-06
5.38247411963e-06
5.37324787163e-06
5.36547737336e-06
5.35913989791e-06
5.3542861691e-06
5.35095247568e-06
5.34646994184e-06
1.21417155612e-66
1.21417155612e-66
1.21417155612e-66
1.21417155612e-66
1.21417155612e-66
1.21417155612e-66
1.21417155612e-66
1.21417155612e-66
1.21417155612e-66
1.21417155612e-66
1.21417155612e-66
1.21417155612e-66
1.21417155613e-66
1.21417155613e-66
1.21417155617e-66
1.21417155874e-66
1.21417170578e-66
1.21417986348e-66
1.2146368594e-66
1.22533217478e-66
1.33348982186e-26
9.55597744424e-08
0.000494198934432
2.79615315451e-05
1.24270029128e-05
7.99114127404e-06
6.52468638038e-06
6.04062173916e-06
5.88665298015e-06
5.84136549533e-06
5.82187382839e-06
5.81107257182e-06
5.80163537482e-06
5.79255666253e-06
5.78352144217e-06
5.77168415228e-06
5.76235123209e-06
5.75274520022e-06
5.74285799543e-06
5.73261135155e-06
5.72194555781e-06
5.71081260645e-06
5.6991717388e-06
5.68712774154e-06
5.67452897494e-06
5.66136019826e-06
5.64762342317e-06
5.63333935779e-06
5.61860908713e-06
5.60338775974e-06
5.5877372413e-06
5.57172943441e-06
5.55547614686e-06
5.53904878771e-06
5.52255998912e-06
5.50616031646e-06
5.49007222538e-06
5.47440327453e-06
5.45919608222e-06
5.44461602137e-06
5.43083211051e-06
5.41803087901e-06
5.40630160336e-06
5.39574240951e-06
5.38645679345e-06
5.37855200289e-06
5.37211364457e-06
5.36719717953e-06
5.36382955832e-06
5.35955633565e-06
1.21417155588e-66
1.21417155588e-66
1.21417155588e-66
1.21417155588e-66
1.21417155588e-66
1.21417155588e-66
1.21417155588e-66
1.21417155588e-66
1.21417155588e-66
1.21417155588e-66
1.21417155588e-66
1.21417155588e-66
1.21417155588e-66
1.21417155588e-66
1.21417155604e-66
1.21417156518e-66
1.21417208825e-66
1.21420089936e-66
1.21581412715e-66
1.24133410526e-66
1.87432839604e-18
5.72698426737e-05
0.000148981582847
2.09759064411e-05
1.06858109657e-05
7.49756253673e-06
6.4401598609e-06
6.08995033317e-06
5.97726961389e-06
5.93919264853e-06
5.92042535369e-06
5.90550465289e-06
5.891520772e-06
5.87786357089e-06
5.8644389907e-06
5.85108710311e-06
5.83772735315e-06
5.8243186825e-06
5.80817433463e-06
5.7945878679e-06
5.78070461592e-06
5.76650006742e-06
5.75194616157e-06
5.73701369111e-06
5.72164853317e-06
5.7058383051e-06
5.68960141239e-06
5.67308186192e-06
5.6561545651e-06
5.63886550137e-06
5.62128867776e-06
5.60355835375e-06
5.58564404581e-06
5.56766033498e-06
5.5497889244e-06
5.53222229743e-06
5.51500417556e-06
5.49819261453e-06
5.48192282988e-06
5.46654157075e-06
5.45212956814e-06
5.43878416681e-06
5.42653224552e-06
5.41810247626e-06
5.4083925158e-06
5.40018748631e-06
5.39353078202e-06
5.38846985513e-06
5.38504930053e-06
5.37835049965e-06
1.21417155569e-66
1.21417155569e-66
1.21417155569e-66
1.21417155569e-66
1.21417155569e-66
1.21417155569e-66
1.21417155569e-66
1.21417155569e-66
1.21417155569e-66
1.21417155569e-66
1.21417155569e-66
1.21417155569e-66
1.21417155569e-66
1.2141715557e-66
1.21417155613e-66
1.21417158081e-66
1.2141729845e-66
1.21424967114e-66
1.2184548474e-66
1.27016429708e-66
4.25745885939e-13
0.000235834297818
5.42635604192e-05
1.70128699056e-05
9.63669025471e-06
7.25576469058e-06
6.46474113938e-06
6.20176018875e-06
6.11184778528e-06
6.0745151746e-06
6.05111757002e-06
6.03047819151e-06
6.01073465052e-06
5.99152471702e-06
5.97264804729e-06
5.95401567729e-06
5.93570084604e-06
5.91755392119e-06
5.89943499958e-06
5.88129136467e-06
5.86312993439e-06
5.84481386562e-06
5.82629148835e-06
5.80762384169e-06
5.78879106738e-06
5.76966094234e-06
5.75023148449e-06
5.73055988761e-06
5.71063533139e-06
5.69049542532e-06
5.67026965263e-06
5.65009953352e-06
5.62990745686e-06
5.6098003678e-06
5.59001530984e-06
5.57061586015e-06
5.55171784367e-06
5.53342581125e-06
5.51590731242e-06
5.49924892598e-06
5.48362100738e-06
5.46917301453e-06
5.45608499044e-06
5.44441471084e-06
5.43419740114e-06
5.42552338487e-06
5.41847097255e-06
5.41308676077e-06
5.40939186554e-06
5.40519002879e-06
1.21417155554e-66
1.21417155554e-66
1.21417155554e-66
1.21417155554e-66
1.21417155554e-66
1.21417155554e-66
1.21417155554e-66
1.21417155554e-66
1.21417155554e-66
1.21417155554e-66
1.21417155554e-66
1.21417155554e-66
1.21417155554e-66
1.21417155556e-66
1.21417155679e-66
1.21417162704e-66
1.21417556829e-66
1.21439462491e-66
1.22198025667e-66
4.34982018654e-27
6.35617086411e-09
0.000423163246635
3.56663631048e-05
1.44442853878e-05
8.97136079454e-06
7.16827113272e-06
6.56144112558e-06
6.35777321135e-06
6.28119232907e-06
6.24037341106e-06
6.2103387745e-06
6.18261939643e-06
6.15590876183e-06
6.13009287497e-06
6.10491607726e-06
6.08020876258e-06
6.0560474608e-06
6.032190948e-06
6.00857232179e-06
5.98516478483e-06
5.96184547974e-06
5.93860304072e-06
5.91552267436e-06
5.89237174197e-06
5.86913035086e-06
5.84583941707e-06
5.82241633797e-06
5.79890109225e-06
5.77554895749e-06
5.7521493973e-06
5.72877326095e-06
5.7055468906e-06
5.68250012733e-06
5.65971837594e-06
5.63750488863e-06
5.61582260108e-06
5.59479653954e-06
5.57463999638e-06
5.55545398789e-06
5.53729978002e-06
5.5203043947e-06
5.50459881424e-06
5.49297020849e-06
5.48024074536e-06
5.46916227395e-06
5.45977220197e-06
5.45213609676e-06
5.44630507896e-06
5.44229698912e-06
5.4380442596e-06
1.21417155542e-66
1.21417155542e-66
1.21417155542e-66
1.21417155542e-66
1.21417155542e-66
1.21417155542e-66
1.21417155542e-66
1.21417155542e-66
1.21417155542e-66
1.21417155542e-66
1.21417155542e-66
1.21417155542e-66
1.21417155542e-66
1.21417155548e-66
1.214171559e-66
1.21417175944e-66
1.21418280636e-66
1.21479860802e-66
1.22763612726e-66
1.85594059695e-26
2.69522177565e-07
0.000482510512518
2.69923166979e-05
1.27347515709e-05
8.56430493324e-06
7.1854891117e-06
6.71488342441e-06
6.5489173004e-06
6.47914067336e-06
6.43546735587e-06
6.39486155979e-06
6.35920841454e-06
6.32478094065e-06
6.29128494961e-06
6.2588934956e-06
6.22725495592e-06
6.19628460612e-06
6.16587416375e-06
6.13598926588e-06
6.10669603233e-06
6.07768653269e-06
6.0490537155e-06
6.02062817463e-06
5.99234323293e-06
5.96420135005e-06
5.93612428418e-06
5.90828079194e-06
5.8805822839e-06
5.855714019e-06
5.82830771505e-06
5.80114120804e-06
5.774314208e-06
5.74812768555e-06
5.72239730414e-06
5.69728938046e-06
5.67298097786e-06
5.64950388597e-06
5.62701827826e-06
5.60569466656e-06
5.58560090518e-06
5.5668563016e-06
5.54968299143e-06
5.53417124088e-06
5.52035887567e-06
5.50833162687e-06
5.49815077719e-06
5.48987189384e-06
5.48354341596e-06
5.47918401705e-06
5.47475315681e-06
1.21417155531e-66
1.21417155532e-66
1.21417155532e-66
1.21417155532e-66
1.21417155532e-66
1.21417155532e-66
1.21417155532e-66
1.21417155532e-66
1.21417155532e-66
1.21417155532e-66
1.21417155532e-66
1.21417155532e-66
1.21417155532e-66
1.2141715555e-66
1.21417156592e-66
1.21417215918e-66
1.2142046666e-66
1.21600908132e-66
1.24367976131e-66
2.35378405207e-18
6.67047564774e-05
0.000146282309223
2.16825404652e-05
1.15144708267e-05
8.34170560073e-06
7.28004260708e-06
6.91025550572e-06
6.77134377522e-06
6.70144548821e-06
6.65050450812e-06
6.60428274201e-06
6.56000753959e-06
6.51710172397e-06
6.47554248842e-06
6.43520769863e-06
6.39596679893e-06
6.35764289212e-06
6.32013981554e-06
6.2833240621e-06
6.24736170108e-06
6.21199849494e-06
6.17712622105e-06
6.14266048243e-06
6.1086835383e-06
6.07517305526e-06
6.04197874655e-06
6.00920635524e-06
5.97671601547e-06
5.9446039811e-06
5.9128482342e-06
5.88167836194e-06
5.85111543013e-06
5.82114538125e-06
5.79192218979e-06
5.76348059136e-06
5.73609480342e-06
5.70983294578e-06
5.68746499549e-06
5.663756039e-06
5.64162987399e-06
5.62104937349e-06
5.60214287202e-06
5.58513618976e-06
5.57001350634e-06
5.5568582178e-06
5.5457326556e-06
5.53668675901e-06
5.5297622805e-06
5.52498566708e-06
5.52038596161e-06
1.21417155523e-66
1.21417155523e-66
1.21417155523e-66
1.21417155523e-66
1.21417155523e-66
1.21417155523e-66
1.21417155523e-66
1.21417155523e-66
1.21417155523e-66
1.21417155523e-66
1.21417155523e-66
1.21417155523e-66
1.21417155524e-66
1.21417155571e-66
1.214171582e-66
1.21417306371e-66
1.21425334002e-66
1.21860428298e-66
1.27187256996e-66
4.3860102471e-13
0.000231331416796
5.78997244977e-05
1.82307436607e-05
1.06795467847e-05
8.26157532883e-06
7.44260866481e-06
7.14750544512e-06
7.02128788434e-06
6.94906053851e-06
6.88877839144e-06
6.83254898963e-06
6.77860248529e-06
6.72651012459e-06
6.6758970598e-06
6.62669360725e-06
6.57910231229e-06
6.53265797732e-06
6.48726804855e-06
6.44314425617e-06
6.3999308114e-06
6.35770968265e-06
6.3161736771e-06
6.27532811425e-06
6.23516222793e-06
6.19577661612e-06
6.15687920331e-06
6.12152148229e-06
6.08380778225e-06
6.04670399023e-06
6.01025808654e-06
5.97470040526e-06
5.93986635766e-06
5.90591140058e-06
5.8728574562e-06
5.84106799124e-06
5.81044504029e-06
5.78115925124e-06
5.75337806686e-06
5.72713015252e-06
5.70257386438e-06
5.67981554752e-06
5.65894901154e-06
5.64008829992e-06
5.62639196296e-06
5.61194657858e-06
5.59978812314e-06
5.58992046929e-06
5.58236177017e-06
5.57710938839e-06
5.57225693793e-06
1.21417155516e-66
1.21417155516e-66
1.21417155516e-66
1.21417155516e-66
1.21417155516e-66
1.21417155516e-66
1.21417155516e-66
1.21417155516e-66
1.21417155516e-66
1.21417155516e-66
1.21417155516e-66
1.21417155516e-66
1.21417155519e-66
1.21417155653e-66
1.21417163298e-66
1.21417587746e-66
1.21440930575e-66
1.22231178166e-66
4.60480875852e-27
6.59091499881e-09
0.000417023611597
3.79317420841e-05
1.57448168601e-05
1.01496758643e-05
8.30468281973e-06
7.66457896486e-06
7.42295381222e-06
7.30391924172e-06
7.22283965464e-06
7.15118483369e-06
7.08337576267e-06
7.01803955345e-06
6.95520596682e-06
6.89444094002e-06
6.8355415395e-06
6.77871789796e-06
6.72355687622e-06
6.66981968815e-06
6.6173269569e-06
6.56921325994e-06
6.5193340675e-06
6.47065750423e-06
6.42290150258e-06
6.37599077939e-06
6.33023041157e-06
6.28527013872e-06
6.24112444012e-06
6.19787030831e-06
6.15562591743e-06
6.11431938958e-06
6.07395186645e-06
6.03744069601e-06
5.99925885743e-06
5.9622988083e-06
5.92662441169e-06
5.8924611677e-06
5.85997035156e-06
5.82912353992e-06
5.80021056692e-06
5.77318392687e-06
5.74817981756e-06
5.72533847757e-06
5.70472596764e-06
5.68644088058e-06
5.67066411378e-06
5.65739805212e-06
5.64662881129e-06
5.63838144124e-06
5.63265575422e-06
5.62761458532e-06
1.2141715551e-66
1.2141715551e-66
1.2141715551e-66
1.2141715551e-66
1.2141715551e-66
1.2141715551e-66
1.2141715551e-66
1.2141715551e-66
1.2141715551e-66
1.2141715551e-66
1.2141715551e-66
1.2141715551e-66
1.21417155517e-66
1.21417155931e-66
1.21417179195e-66
1.21418446218e-66
1.21488146658e-66
1.22887544771e-66
2.05036909484e-26
3.62575471289e-07
0.000483652457788
2.84712054801e-05
1.40010217298e-05
9.83425217547e-06
8.44098101895e-06
7.93988147942e-06
7.73104013162e-06
7.61294837029e-06
7.52052931714e-06
7.43576482136e-06
7.35504300338e-06
7.27760968191e-06
7.20291000656e-06
7.13409644542e-06
7.06466354878e-06
6.99733054349e-06
6.93223616761e-06
6.86917491376e-06
6.80789797035e-06
6.74823764364e-06
6.69029562973e-06
6.63379073918e-06
6.5785242487e-06
6.52471683174e-06
6.47498779952e-06
6.42355460409e-06
6.37334415151e-06
6.32423700758e-06
6.27624288284e-06
6.22952434042e-06
6.18413927498e-06
6.14013451075e-06
6.09746734187e-06
6.0562523487e-06
6.01959687022e-06
5.9818615093e-06
5.9459007124e-06
5.9118893927e-06
5.87989303745e-06
5.85018631649e-06
5.8228671564e-06
5.79791232641e-06
5.77550495117e-06
5.75569133493e-06
5.73849653054e-06
5.72398548739e-06
5.71220742499e-06
5.7032028037e-06
5.69694907219e-06
5.69167839898e-06
1.21417155505e-66
1.21417155505e-66
1.21417155505e-66
1.21417155505e-66
1.21417155505e-66
1.21417155505e-66
1.21417155505e-66
1.21417155505e-66
1.21417155505e-66
1.21417155505e-66
1.21417155505e-66
1.21417155505e-66
1.2141715553e-66
1.21417156919e-66
1.21417234847e-66
1.21421444543e-66
1.21650813298e-66
1.24945391043e-66
6.65060214383e-15
9.41908566737e-05
0.000130263072158
2.27024877566e-05
1.27794288569e-05
9.69341634341e-06
8.64834565941e-06
8.2544954291e-06
8.06706943066e-06
7.9426474597e-06
7.83775952297e-06
7.73920742319e-06
7.64814605426e-06
7.55760492005e-06
7.47064791035e-06
7.38669451585e-06
7.30581055985e-06
7.2276777246e-06
7.15214238577e-06
7.07914052894e-06
7.01137268179e-06
6.94267308473e-06
6.87578145391e-06
6.81083877465e-06
6.74764585657e-06
6.68594799681e-06
6.6262150285e-06
6.5679594283e-06
6.51405383957e-06
6.45874249243e-06
6.40498781687e-06
6.35267831806e-06
6.3018493457e-06
6.25278279975e-06
6.20540431579e-06
6.15994333412e-06
6.11627918862e-06
6.07454634086e-06
6.03799362371e-06
6.00074756782e-06
5.9658311562e-06
5.93345725691e-06
5.90359276267e-06
5.87639767031e-06
5.85192917764e-06
5.83026119348e-06
5.81153292365e-06
5.79582964106e-06
5.78307908616e-06
5.77330157338e-06
5.766493002e-06
5.76097656617e-06
1.214171555e-66
1.214171555e-66
1.214171555e-66
1.214171555e-66
1.214171555e-66
1.214171555e-66
1.214171555e-66
1.214171555e-66
1.214171555e-66
1.214171555e-66
1.214171555e-66
1.21417155501e-66
1.2141715557e-66
1.21417159362e-66
1.21417368837e-66
1.214285094e-66
1.2201387657e-66
1.28845882902e-66
1.07233242702e-10
0.000288934566619
5.27449470864e-05
1.89384305943e-05
1.19804968728e-05
9.71775402343e-06
8.93346952794e-06
8.609957999e-06
8.43152644299e-06
8.29836329238e-06
8.17809557838e-06
8.06427834624e-06
7.95528983497e-06
7.85085454996e-06
7.75022733098e-06
7.65371379254e-06
7.56363822424e-06
7.47400862707e-06
7.38751725214e-06
7.3036948419e-06
7.22289259528e-06
7.14464438843e-06
7.07186481379e-06
6.99802298818e-06
6.92643825739e-06
6.8569911937e-06
6.78944279758e-06
6.72361344379e-06
6.65989578397e-06
6.59798807076e-06
6.54103380865e-06
6.48266856574e-06
6.42648130041e-06
6.37223914568e-06
6.32000941985e-06
6.26981077049e-06
6.22179066224e-06
6.17622000143e-06
6.13611459244e-06
6.09543803036e-06
6.05744501322e-06
6.02220481144e-06
5.98975049996e-06
5.96022369251e-06
5.93367186565e-06
5.91028430795e-06
5.89011470286e-06
5.87309980501e-06
5.85927343187e-06
5.84865510625e-06
5.84124719007e-06
5.8354882593e-06
1.21417155496e-66
1.21417155496e-66
1.21417155496e-66
1.21417155496e-66
1.21417155496e-66
1.21417155496e-66
1.21417155496e-66
1.21417155496e-66
1.21417155496e-66
1.21417155496e-66
1.21417155496e-66
1.21417155501e-66
1.2141715578e-66
1.21417171303e-66
1.21418011062e-66
1.214635473e-66
1.22566910107e-66
1.18103199324e-26
5.63452109656e-08
0.000480829550902
3.48847312038e-05
1.64407182469e-05
1.15186253314e-05
9.8879012023e-06
9.28187960343e-06
9.00331550215e-06
8.82346942221e-06
8.67427358504e-06
8.53621770103e-06
8.40471435847e-06
8.27926470408e-06
8.16239445652e-06
8.04740619839e-06
7.93691559869e-06
7.83102011517e-06
7.72892687176e-06
7.63391982722e-06
7.53905885502e-06
7.44762008791e-06
7.35902891774e-06
7.27350554708e-06
7.1905301357e-06
7.11360921746e-06
7.03581261097e-06
6.96028947718e-06
6.88700664876e-06
6.81612812539e-06
6.74742459011e-06
6.6839995341e-06
6.61960784514e-06
6.55756419389e-06
6.49779782655e-06
6.44048333748e-06
6.3854947657e-06
6.33292573741e-06
6.28328987065e-06
6.23964751462e-06
6.19535140246e-06
6.15413431701e-06
6.11597406397e-06
6.08093752778e-06
6.04913046177e-06
6.02056443316e-06
5.99537490166e-06
5.97355373508e-06
5.95513663154e-06
5.94016473001e-06
5.92874631184e-06
5.92075205921e-06
5.91469307399e-06
1.21417155492e-66
1.21417155492e-66
1.21417155492e-66
1.21417155492e-66
1.21417155492e-66
1.21417155492e-66
1.21417155492e-66
1.21417155492e-66
1.21417155492e-66
1.21417155492e-66
1.21417155493e-66
1.21417155513e-66
1.21417156604e-66
1.21417216858e-66
1.21420427641e-66
1.21592967405e-66
1.24299768593e-66
1.70910897215e-18
4.27637371661e-05
0.000283854264188
2.61415304222e-05
1.47697970076e-05
1.1327484272e-05
1.01539463769e-05
9.68018765841e-06
9.42328827022e-06
9.2359164726e-06
9.06838078961e-06
8.91115487902e-06
8.76488699212e-06
8.62184419682e-06
8.4854730422e-06
8.35458510029e-06
8.23290582771e-06
8.11264981056e-06
7.9972726087e-06
7.88657959301e-06
7.77995069874e-06
7.68060689607e-06
7.58164730455e-06
7.48613863746e-06
7.39364874405e-06
7.30429207328e-06
7.22131401027e-06
7.13752146638e-06
7.05653794468e-06
6.97831901933e-06
6.90258996738e-06
6.82933180971e-06
6.76232930224e-06
6.69419346703e-06
6.62896624412e-06
6.56645845406e-06
6.50663185891e-06
6.44952442299e-06
6.39555137077e-06
6.34805112117e-06
6.30033965983e-06
6.25584144274e-06
6.21462288884e-06
6.17676966914e-06
6.14242823681e-06
6.11168322697e-06
6.0847659213e-06
6.06141868536e-06
6.04167384304e-06
6.02565018072e-06
6.01336231026e-06
6.00474386603e-06
5.99836712933e-06
1.21417155489e-66
1.21417155489e-66
1.21417155489e-66
1.21417155489e-66
1.21417155489e-66
1.21417155489e-66
1.21417155489e-66
1.21417155489e-66
1.21417155489e-66
1.21417155489e-66
1.21417155491e-66
1.21417155562e-66
1.21417159444e-66
1.21417370852e-66
1.21428473511e-66
1.22003459069e-66
1.28709410824e-66
2.24935848135e-11
0.000261958856398
6.10640547367e-05
2.11444174425e-05
1.37328275143e-05
1.13570739428e-05
1.05074986335e-05
1.01182903627e-05
9.86753499759e-06
9.66412598757e-06
9.48022993821e-06
9.30270418991e-06
9.13377947111e-06
8.97299384174e-06
8.82270239747e-06
8.67592326701e-06
8.5353550502e-06
8.40431855657e-06
8.27533633912e-06
8.15140911563e-06
8.03250443408e-06
7.9213899705e-06
7.8112391648e-06
7.70506450463e-06
7.60268469822e-06
7.50410247776e-06
7.41232529693e-06
7.32008934132e-06
7.23118351993e-06
7.145450997e-06
7.06270695377e-06
6.98625124324e-06
6.90938892836e-06
6.83555299149e-06
6.76468246847e-06
6.69668503807e-06
6.63210416756e-06
6.57066721269e-06
6.51591424929e-06
6.46108365875e-06
6.40968450487e-06
6.36175332835e-06
6.31760954127e-06
6.27709411308e-06
6.24044225627e-06
6.20759173135e-06
6.17875422936e-06
6.15371761917e-06
6.13592373195e-06
6.11866755956e-06
6.10543162264e-06
6.09611065187e-06
6.08939497683e-06
1.21417155486e-66
1.21417155486e-66
1.21417155486e-66
1.21417155486e-66
1.21417155486e-66
1.21417155486e-66
1.21417155486e-66
1.21417155486e-66
1.21417155486e-66
1.21417155486e-66
1.21417155493e-66
1.21417155848e-66
1.21417175291e-66
1.21418209201e-66
1.21473302951e-66
1.22712627251e-66
1.415063041e-26
8.43864707106e-08
0.000485354744191
3.66205613988e-05
1.80918778445e-05
1.32026693346e-05
1.1581737781e-05
1.0940152781e-05
1.05930481356e-05
1.03393998805e-05
1.01136787605e-05
9.90267525653e-06
9.7032744279e-06
9.5173001419e-06
9.33706513875e-06
9.16560247842e-06
9.00537939199e-06
8.84915756512e-06
8.69942085093e-06
8.56013335679e-06
8.42280846127e-06
8.29127775082e-06
8.16477325091e-06
8.04694390091e-06
7.93002579961e-06
7.81728003409e-06
7.70889166548e-06
7.60788677005e-06
7.50711657359e-06
7.41012635461e-06
7.31646513862e-06
7.22648286676e-06
7.14355700988e-06
7.06007026358e-06
6.98020749041e-06
6.90379912752e-06
6.83083092173e-06
6.76130796689e-06
6.69878207713e-06
6.6363533935e-06
6.57769980002e-06
6.52272585657e-06
6.47151604113e-06
6.42440318001e-06
6.3812351182e-06
6.34218272344e-06
6.31081702906e-06
6.27994460255e-06
6.25331445708e-06
6.23081384892e-06
6.21248736399e-06
6.19839065036e-06
6.18842615767e-06
6.18139078373e-06
1.21417155484e-66
1.21417155484e-66
1.21417155484e-66
1.21417155484e-66
1.21417155484e-66
1.21417155484e-66
1.21417155484e-66
1.21417155484e-66
1.21417155484e-66
1.21417155484e-66
1.21417155517e-66
1.21417157285e-66
1.2141725329e-66
1.2142228704e-66
1.21686359037e-66
1.25370286604e-66
1.02606177571e-14
9.25042211049e-05
0.000188240238936
2.67789514058e-05
1.62368463386e-05
1.3045896995e-05
1.19326788973e-05
1.14217123575e-05
1.10925288092e-05
1.08211086136e-05
1.05714281738e-05
1.03403373462e-05
1.01177564289e-05
9.90686718918e-06
9.70996384811e-06
9.51901792306e-06
9.3412336123e-06
9.16836458355e-06
9.00332303413e-06
8.84959090931e-06
8.69860851654e-06
8.55428769082e-06
8.41545714375e-06
8.28626386675e-06
8.15851296605e-06
8.03572840976e-06
7.91737485309e-06
7.80755357612e-06
7.6978732241e-06
7.59246745403e-06
7.49113278095e-06
7.39744562196e-06
7.303784003e-06
7.21377089658e-06
7.12791064501e-06
7.04584902941e-06
6.9712214955e-06
6.89675145093e-06
6.8262605901e-06
6.75970942684e-06
6.697159435e-06
6.63871767146e-06
6.58445423444e-06
6.53807463398e-06
6.49226543159e-06
6.45073476763e-06
6.41354515694e-06
6.38069897932e-06
6.35249307689e-06
6.32866455951e-06
6.30922899337e-06
6.29419542951e-06
6.2835562094e-06
6.27614789918e-06
1.21417155481e-66
1.21417155481e-66
1.21417155481e-66
1.21417155481e-66
1.21417155481e-66
1.21417155481e-66
1.21417155481e-66
1.21417155481e-66
1.21417155482e-66
1.21417155485e-66
1.2141715565e-66
1.21417164604e-66
1.21417641576e-66
1.21442688833e-66
1.22294662029e-66
4.04145659712e-27
3.56749848732e-09
0.000365058835246
5.14323687503e-05
2.16405570784e-05
1.52488697342e-05
1.31807855317e-05
1.23846711688e-05
1.19396576759e-05
1.16063669442e-05
1.13113545445e-05
1.10393748088e-05
1.07797628101e-05
1.05376795947e-05
1.03047959302e-05
1.00876329687e-05
9.87782037558e-06
9.67830551682e-06
9.49216056522e-06
9.31086211217e-06
9.13825308605e-06
8.97684102056e-06
8.81931174793e-06
8.66846475498e-06
8.52777121646e-06
8.38877114951e-06
8.25569411998e-06
8.13175307156e-06
8.00854804978e-06
7.89048255878e-06
7.77699232432e-06
7.67177060408e-06
7.56706715403e-06
7.4666947579e-06
7.37044575705e-06
7.27826584027e-06
7.19439304982e-06
7.11070676485e-06
7.03131120804e-06
6.95621520146e-06
6.88549303944e-06
6.81896986058e-06
6.76102128667e-06
6.70344515747e-06
6.65050616161e-06
6.60204829095e-06
6.55813066026e-06
6.51897739441e-06
6.48448646811e-06
6.4546070837e-06
6.42942048465e-06
6.41281649825e-06
6.39683998699e-06
6.38545481709e-06
6.37761167185e-06
1.21417155479e-66
1.21417155479e-66
1.21417155479e-66
1.21417155479e-66
1.21417155479e-66
1.21417155479e-66
1.21417155479e-66
1.21417155479e-66
1.2141715548e-66
1.21417155499e-66
1.21417156528e-66
1.21417211924e-66
1.21420097007e-66
1.21570641413e-66
1.2401321187e-66
7.59644929703e-19
1.06113707704e-05
0.000454212983863
3.26491667833e-05
1.88034058128e-05
1.48753209558e-05
1.35301758118e-05
1.29073185743e-05
1.24874890209e-05
1.21343224013e-05
1.18106437152e-05
1.15114496177e-05
1.12256562101e-05
1.09596775227e-05
1.07045124713e-05
1.0466607127e-05
1.02374827838e-05
1.00196384898e-05
9.81690795411e-06
9.61966416124e-06
9.4361150705e-06
9.25683152345e-06
9.08561669911e-06
8.92603311803e-06
8.76936510546e-06
8.6194999176e-06
8.48019747312e-06
8.34230784572e-06
8.21020705209e-06
8.08358199366e-06
7.96599706236e-06
7.84917440323e-06
7.73741762802e-06
7.63034744572e-06
7.53199034316e-06
7.43407029332e-06
7.34077192285e-06
7.25207035193e-06
7.167764363e-06
7.09237377406e-06
7.01742613646e-06
6.94719301948e-06
6.88170236537e-06
6.82103934834e-06
6.7651796726e-06
6.71412699307e-06
6.67210319057e-06
6.6308038345e-06
6.59451018156e-06
6.56309348106e-06
6.53650049376e-06
6.51486397891e-06
6.49803732476e-06
6.48595793084e-06
6.4777271956e-06
1.21417155477e-66
1.21417155477e-66
1.21417155477e-66
1.21417155477e-66
1.21417155477e-66
1.21417155477e-66
1.21417155477e-66
1.21417155477e-66
1.21417155479e-66
1.21417155583e-66
1.21417161087e-66
1.21417453649e-66
1.21432580548e-66
1.22141954249e-66
6.73013793519e-28
2.05502192222e-10
0.000277668228994
6.89730011814e-05
2.48436073778e-05
1.73015917682e-05
1.49223546763e-05
1.39982786535e-05
1.3464320409e-05
1.30399362207e-05
1.26596806216e-05
1.23100703323e-05
1.1977700515e-05
1.16693818974e-05
1.13755032958e-05
1.11017766191e-05
1.08434238215e-05
1.05948446623e-05
1.03588968627e-05
1.01393313808e-05
9.92625385958e-06
9.7279040867e-06
9.53492784374e-06
9.35073576788e-06
9.17896462315e-06
9.01084699722e-06
8.85010320595e-06
8.70015176964e-06
8.55252208157e-06
8.41098953647e-06
8.27999956046e-06
8.15042738922e-06
8.02633712485e-06
7.90763278326e-06
7.79815814669e-06
7.68953392066e-06
7.58599156382e-06
7.48739077019e-06
7.39808756924e-06
7.30931869324e-06
7.22532106999e-06
7.14652342128e-06
7.07279405053e-06
7.00404043131e-06
6.9447366276e-06
6.88611134055e-06
6.83262546317e-06
6.7842462318e-06
6.74107433053e-06
6.7029783874e-06
6.67004118727e-06
6.64221027547e-06
6.61935829301e-06
6.60583876091e-06
6.59294162804e-06
6.58425678162e-06
1.21417155476e-66
1.21417155476e-66
1.21417155476e-66
1.21417155476e-66
1.21417155476e-66
1.21417155476e-66
1.21417155476e-66
1.21417155476e-66
1.21417155493e-66
1.21417156367e-66
1.21417202682e-66
1.21419582154e-66
1.21541974709e-66
1.23635858699e-66
3.12081856282e-26
1.55756642989e-06
0.000495865525876
3.69919227129e-05
2.10333906259e-05
1.67476754674e-05