/*--------------------------------*- C++ -*----------------------------------*\
| =========                 |                                                 |
| \\      /  F ield         | foam-extend: Open Source CFD                    |
|  \\    /   O peration     | Version:     4.1                                |
|   \\  /    A nd           | Web:         http://www.foam-extend.org         |
|    \\/     M anipulation  |                                                 |
\*---------------------------------------------------------------------------*/
FoamFile
{
    version     2.0;
    format      ascii;
    class       volScalarField;
    location    "0.001";
    object      NPlus;
}
// * * * * * * * * * * * * * * * * * * * * * * * * * * * * * * * * * * * * * //

dimensions      [0 0 0 0 0 0 0];

internalField   nonuniform List<scalar> 
8400
(
9.99867028923e-266
9.99867028928e-266
9.99867028934e-266
9.99867028939e-266
9.99867028944e-266
9.9986702895e-266
9.99867028955e-266
9.9986702896e-266
9.99867028965e-266
9.9986702897e-266
9.99867028974e-266
9.99867028979e-266
9.99867028984e-266
9.99867028988e-266
9.99867028993e-266
9.99867029005e-266
9.99867029436e-266
9.99867053671e-266
9.99868428507e-266
9.99943249758e-266
1.00405585379e-265
1.05700446894e-265
6.75621949652e-41
8.46516262622e-07
0.0516127580193
0.293968811649
0.443596475872
0.511663631901
0.539261212239
0.549516549415
0.5529487526
0.554077965841
0.55460105363
0.554951222031
0.555241366351
0.55550204225
0.555744129054
0.555973737286
0.556194437376
0.556409259176
0.556621056458
0.556832196357
0.557044962759
0.557261431097
0.55748236763
0.557710012921
0.557945682876
0.558190508955
0.558446647045
0.558657156639
0.558934815263
0.559220081591
0.559514620046
0.559817567551
0.560127478685
0.560441971833
0.56075848518
0.561074453954
0.561386660638
0.561691430248
0.561985514868
0.562264811214
0.562525590502
0.562764089933
0.5629766995
0.563160120335
0.563311173445
0.563428030493
0.563509952087
0.563736731205
9.99867027149e-266
9.99867027151e-266
9.99867027153e-266
9.99867027156e-266
9.99867027158e-266
9.9986702716e-266
9.99867027162e-266
9.99867027164e-266
9.99867027166e-266
9.99867027168e-266
9.9986702717e-266
9.99867027172e-266
9.99867027174e-266
9.99867027175e-266
9.99867027178e-266
9.99867027213e-266
9.99867029123e-266
9.99867138147e-266
9.99873205416e-266
1.0002106708e-265
1.0103519155e-265
1.31063573262e-99
2.97937310614e-21
6.43088842531e-05
0.151077510187
0.366942817022
0.480634053141
0.529061546475
0.547888260117
0.554346826818
0.556251932957
0.556929137513
0.557247465935
0.557500829638
0.557740439432
0.557976473969
0.558268357981
0.558505892083
0.558746167978
0.558988819407
0.559234288008
0.559483501576
0.559736278394
0.559994892062
0.560259945704
0.560532029472
0.560811787047
0.561099441739
0.561396037577
0.56170155464
0.562015508307
0.562337232115
0.562665879678
0.56299951686
0.563336579636
0.563674952362
0.564011088564
0.56434322171
0.564667548358
0.56498028935
0.565279148273
0.565561113525
0.56582306999
0.566060991843
0.566271122928
0.566450603455
0.56659736017
0.566710592648
0.566789728261
0.566976642509
9.99867026256e-266
9.99867026257e-266
9.99867026259e-266
9.9986702626e-266
9.99867026261e-266
9.99867026263e-266
9.99867026264e-266
9.99867026265e-266
9.99867026266e-266
9.99867026268e-266
9.99867026269e-266
9.9986702627e-266
9.99867026271e-266
9.99867026272e-266
9.99867026277e-266
9.99867026472e-266
9.99867037598e-266
9.99867673762e-266
9.99902650668e-266
1.00186090599e-265
1.03285775224e-265
4.05623690436e-63
8.23446414792e-09
0.0105009241805
0.255605126778
0.427617801725
0.508110614749
0.540959927607
0.552939907252
0.556735781722
0.557785911055
0.558123921723
0.558321119394
0.558492642259
0.558719743429
0.558896372863
0.559080584915
0.559271819205
0.559470088999
0.559674570832
0.559886798748
0.560107302699
0.560336825197
0.560575775798
0.560824115734
0.56108185044
0.561349774665
0.561627276826
0.561970784269
0.562269463674
0.562578802678
0.562895861388
0.56321905827
0.563546480746
0.56387540338
0.564205617896
0.564534539392
0.564857833851
0.565170365793
0.565470115928
0.565756259114
0.566027458133
0.566279140119
0.566505722939
0.566701277323
0.566869164964
0.566957245296
0.567119236871
0.567194406941
0.567358118966
9.99867025687e-266
9.99867025688e-266
9.99867025689e-266
9.9986702569e-266
9.99867025691e-266
9.99867025691e-266
9.99867025692e-266
9.99867025693e-266
9.99867025694e-266
9.99867025695e-266
9.99867025696e-266
9.99867025697e-266
9.99867025698e-266
9.99867025699e-266
9.99867025712e-266
9.99867026418e-266
9.99867066522e-266
9.99869342142e-266
9.99993320236e-266
1.00672572635e-265
1.08623039035e-265
9.62695573997e-27
8.25634783402e-06
0.0990897989604
0.333761522021
0.465949613156
0.52401934278
0.546738804055
0.554642626871
0.556961910713
0.557659812813
0.557932327135
0.558127334593
0.558307525882
0.558485493452
0.558721971277
0.558906605592
0.559097742611
0.559295150266
0.559499160185
0.559710058395
0.559929499316
0.560158320263
0.560397197025
0.560646507954
0.560906132956
0.561176270885
0.561457225776
0.561748866425
0.562050518106
0.562361594162
0.562680236404
0.563004529826
0.56333272217
0.563662530743
0.563990795743
0.564316179657
0.564635373163
0.564944940043
0.5652421929
0.565524141991
0.565788242107
0.566031690508
0.566251358852
0.566444299447
0.566607669098
0.566741208501
0.56684401861
0.566915523264
0.567058345608
9.99867025286e-266
9.99867025287e-266
9.99867025287e-266
9.99867025288e-266
9.99867025289e-266
9.9986702529e-266
9.9986702529e-266
9.99867025291e-266
9.99867025292e-266
9.99867025292e-266
9.99867025293e-266
9.99867025294e-266
9.99867025294e-266
9.99867025296e-266
9.99867025352e-266
9.99867028503e-266
9.9986720904e-266
9.99877225076e-266
1.00043832508e-265
1.01357004293e-265
2.57678799443e-99
5.92740780342e-19
0.00019930295429
0.183957930277
0.387053008731
0.489560518151
0.532557601186
0.548825345415
0.554240817869
0.555812746276
0.556404551853
0.556711643659
0.55696650335
0.557206144035
0.557439015403
0.557724941751
0.557955420495
0.558188882807
0.558425448986
0.55866601258
0.55891206986
0.559164808902
0.559425254419
0.559692933755
0.55996968162
0.560255823254
0.560551415489
0.560856368424
0.561169998583
0.561492021421
0.561821202533
0.562156189412
0.562496507613
0.562839996926
0.563183778547
0.563524525274
0.563858683161
0.564184443909
0.56450059767
0.564803678477
0.565089793919
0.565356032504
0.565599896762
0.565819602986
0.566013117358
0.566178055281
0.566312492212
0.566415306107
0.566486173485
0.566619113503
9.99867024987e-266
9.99867024988e-266
9.99867024988e-266
9.99867024989e-266
9.9986702499e-266
9.9986702499e-266
9.99867024991e-266
9.99867024991e-266
9.99867024992e-266
9.99867024992e-266
9.99867024993e-266
9.99867024994e-266
9.99867024994e-266
9.99867024998e-266
9.99867025195e-266
9.99867036415e-266
9.99867678637e-266
9.99903052946e-266
1.00188377548e-265
1.03321722761e-265
4.1373606327e-63
8.75979082351e-09
0.010366422435
0.253701051251
0.424310726845
0.504306766199
0.536792987555
0.548760645397
0.552631851003
0.553839081372
0.554358205017
0.554732615268
0.555070271648
0.555394059673
0.555709563191
0.556019285839
0.556325362363
0.556628397958
0.556985516403
0.557287459409
0.557593100454
0.557902598786
0.558217298804
0.558538368687
0.55886606619
0.559200761038
0.559542449886
0.559889840545
0.560243898476
0.560603713002
0.560968079472
0.561336039035
0.561707284402
0.562079364232
0.562448132047
0.562810379844
0.56316439055
0.563510601157
0.563846749966
0.564166092099
0.564463989517
0.564738783399
0.564991766588
0.565165548188
0.56536792024
0.565538936686
0.565677313926
0.56578216278
0.565852380073
0.566031793712
9.99867024756e-266
9.99867024757e-266
9.99867024757e-266
9.99867024758e-266
9.99867024758e-266
9.99867024758e-266
9.99867024759e-266
9.99867024759e-266
9.9986702476e-266
9.9986702476e-266
9.99867024761e-266
9.99867024761e-266
9.99867024762e-266
9.99867024772e-266
9.99867025304e-266
9.99867055598e-266
9.99868779055e-266
9.99962934975e-266
1.00512605419e-265
1.06861496311e-265
7.23386538473e-34
2.34035598694e-06
0.0691921585774
0.308173810715
0.449693965924
0.513017561225
0.538114075502
0.547108888492
0.550036027066
0.551087499114
0.551659981287
0.552132133785
0.552573362243
0.553000126422
0.553415789398
0.553822716387
0.554221278749
0.554613804144
0.555002603599
0.555389164566
0.555774780699
0.5561609706
0.556549005066
0.556938926413
0.557331451381
0.557728207534
0.558129329367
0.558535524734
0.558945674588
0.559358846403
0.559773329291
0.560187188058
0.56060084931
0.561012333881
0.561418085493
0.56181527504
0.562201280883
0.562574744201
0.562934468101
0.563276706016
0.56359750042
0.563893566736
0.564162321217
0.564402605802
0.564613203028
0.564792090785
0.564937458682
0.56504830883
0.565124395166
0.565249962717
9.99867024572e-266
9.99867024573e-266
9.99867024573e-266
9.99867024573e-266
9.99867024574e-266
9.99867024574e-266
9.99867024575e-266
9.99867024575e-266
9.99867024575e-266
9.99867024576e-266
9.99867024576e-266
9.99867024577e-266
9.99867024578e-266
9.99867024604e-266
9.99867026111e-266
9.99867112367e-266
9.99871951435e-266
1.00014090935e-265
1.00945455486e-265
8.72686407946e-100
2.12618596448e-22
3.7962544324e-05
0.133742330971
0.351269513433
0.467607515063
0.517886644394
0.537531843724
0.544395016483
0.546711861909
0.54773332975
0.548403713995
0.548999638339
0.549565753729
0.550110946388
0.550640312315
0.551156983181
0.551662312487
0.552158545114
0.552647687371
0.553132085619
0.553612306944
0.554089328379
0.554563137892
0.555036467871
0.555510206917
0.555985111192
0.556461300371
0.556938346267
0.557413091439
0.557887696857
0.558360827537
0.558832234921
0.559299224078
0.559760470683
0.560212315018
0.56065336067
0.561080446674
0.561490177808
0.561880752386
0.562250449261
0.562596780501
0.562918294129
0.563155286117
0.563416111151
0.563642488193
0.563834380455
0.56399034864
0.564109210576
0.564190731704
0.56431569289
9.99867024423e-266
9.99867024423e-266
9.99867024424e-266
9.99867024424e-266
9.99867024424e-266
9.99867024425e-266
9.99867024425e-266
9.99867024425e-266
9.99867024426e-266
9.99867024426e-266
9.99867024426e-266
9.99867024427e-266
9.99867024428e-266
9.99867024504e-266
9.99867028822e-266
9.99867274926e-266
9.9988083834e-266
1.00063692017e-265
1.01639883787e-265
3.50198861662e-99
1.77534816179e-17
0.000356639992072
0.193470071446
0.384608047156
0.480129291975
0.520125232482
0.535526321368
0.540893396172
0.54282152698
0.543822772644
0.544671344871
0.545400906204
0.546102966124
0.546782772863
0.547440522344
0.548080886132
0.548707271073
0.549321223311
0.549923173061
0.550513368984
0.55109592993
0.551671722143
0.552242356078
0.552809185194
0.553373671301
0.553935592446
0.554493869673
0.555050072611
0.555547577386
0.556098307022
0.556643201982
0.55718103753
0.557707389808
0.558224209314
0.558729217085
0.559219714633
0.559693251142
0.560146954327
0.56057854479
0.560985106949
0.561364524824
0.561713225167
0.56202874383
0.562309417154
0.562553570292
0.562760136697
0.562928041267
0.563056542142
0.563145046327
0.563272020127
9.99867024299e-266
9.998670243e-266
9.998670243e-266
9.998670243e-266
9.99867024301e-266
9.99867024301e-266
9.99867024301e-266
9.99867024302e-266
9.99867024302e-266
9.99867024302e-266
9.99867024303e-266
9.99867024303e-266
9.99867024307e-266
9.99867024532e-266
9.99867037324e-266
9.99867765721e-266
9.9990767836e-266
1.00212314039e-265
1.03609722622e-265
5.0703283973e-63
1.55542614103e-08
0.0108530497171
0.247635559734
0.411250181914
0.488609225357
0.520421271151
0.532497207841
0.536735758736
0.538471620302
0.539551381516
0.54047768095
0.541352233651
0.54219824152
0.54301692287
0.543811129262
0.544584037501
0.545337880396
0.546076300112
0.546800217527
0.5475085835
0.548204588453
0.54889160346
0.549570483979
0.550240101728
0.550901310073
0.551556194727
0.552204442018
0.552846218484
0.553482943039
0.554112322726
0.554731474688
0.555339321599
0.555935247239
0.556518409311
0.557085907359
0.557633922625
0.558161257369
0.558608404423
0.559085200732
0.559530339454
0.559944445416
0.560324989771
0.56066875054
0.560974180791
0.561239642183
0.56146398333
0.561646219254
0.561785416976
0.561881495628
0.562010322373
9.99867024196e-266
9.99867024196e-266
9.99867024197e-266
9.99867024197e-266
9.99867024197e-266
9.99867024197e-266
9.99867024198e-266
9.99867024198e-266
9.99867024198e-266
9.99867024199e-266
9.99867024199e-266
9.99867024199e-266
9.9986702421e-266
9.99867024782e-266
9.99867057065e-266
9.99868876308e-266
9.9996743963e-266
1.00530953133e-265
1.0707123821e-265
7.35813811866e-34
2.15487767583e-06
0.0625077440339
0.29371550641
0.431771694678
0.493909844502
0.519085745329
0.528538373371
0.532048771859
0.533676523381
0.534877990437
0.53596157493
0.536993951724
0.537991375669
0.538961317028
0.539904229474
0.540817932614
0.541710331475
0.54258332312
0.543434024588
0.544266877135
0.545083137154
0.545885847161
0.546677203812
0.54745592144
0.548221506312
0.548978987166
0.549667436111
0.550404274154
0.551131057401
0.5518454317
0.552544284294
0.553229034942
0.553899630767
0.554552288047
0.555182598456
0.555790399458
0.556372760474
0.55692662768
0.557449777213
0.557940800405
0.558396800054
0.558814904202
0.559193684976
0.559467203861
0.559757752538
0.560001139805
0.560198090589
0.560348522435
0.560452788574
0.560584636535
9.99867024108e-266
9.99867024109e-266
9.99867024109e-266
9.99867024109e-266
9.99867024109e-266
9.9986702411e-266
9.9986702411e-266
9.9986702411e-266
9.9986702411e-266
9.99867024111e-266
9.99867024111e-266
9.99867024112e-266
9.99867024141e-266
9.99867025797e-266
9.99867119654e-266
9.99872331031e-266
1.0001589345e-265
1.00986160155e-265
9.21090448584e-100
2.47687475889e-22
3.45183058125e-05
0.123750688602
0.33371607785
0.446892237022
0.49646978723
0.516374946837
0.5237888098
0.526772750504
0.528441782087
0.529801202948
0.531064528725
0.532280583504
0.533451343316
0.534585518836
0.535686843716
0.536752201432
0.537789014823
0.538800584759
0.539791611728
0.540701466883
0.541647466891
0.542573503206
0.543483611747
0.544379044484
0.545255743613
0.546118025855
0.546968220844
0.547802681076
0.548619949488
0.549421133295
0.550206384357
0.550917083037
0.551663851573
0.552388046309
0.553088568656
0.553760984855
0.55440244297
0.555011688809
0.555585207947
0.556121207802
0.55661784536
0.557073151365
0.557483873122
0.557847945095
0.558162674583
0.558427341056
0.558641579688
0.558804926395
0.558917521552
0.559050713706
9.99867024033e-266
9.99867024033e-266
9.99867024034e-266
9.99867024034e-266
9.99867024034e-266
9.99867024034e-266
9.99867024035e-266
9.99867024035e-266
9.99867024035e-266
9.99867024035e-266
9.99867024036e-266
9.99867024037e-266
9.99867024128e-266
9.99867029202e-266
9.99867314846e-266
9.9988287136e-266
1.00073865399e-265
1.01792047664e-265
3.82374926521e-99
5.23362852726e-17
0.000356496903884
0.183764096092
0.366573658626
0.457919551542
0.496923191121
0.512479804851
0.51840883804
0.521062859496
0.522830486748
0.524374901863
0.525833425608
0.527234555854
0.528591201667
0.529843121049
0.531112787512
0.532347662003
0.533545104383
0.534708763616
0.535842858259
0.536951869311
0.538031969599
0.539087778746
0.54012426751
0.541137934913
0.542074591673
0.543049319315
0.544003862111
0.544939130848
0.545856882893
0.546752752954
0.547625755174
0.54847572603
0.549301101432
0.55010341159
0.550814746995
0.551552889832
0.552255973684
0.552924086803
0.553553115674
0.554138652147
0.554678348182
0.555171165622
0.555614684382
0.556007299677
0.556347655761
0.556634330128
0.556866304308
0.557043488647
0.557165332166
0.557300707323
9.99867023968e-266
9.99867023968e-266
9.99867023969e-266
9.99867023969e-266
9.99867023969e-266
9.99867023969e-266
9.9986702397e-266
9.9986702397e-266
9.9986702397e-266
9.9986702397e-266
9.9986702397e-266
9.99867023976e-266
9.9986702428e-266
9.99867041337e-266
9.99867998131e-266
9.99919684817e-266
1.00273587646e-265
1.04318673171e-265
3.3248004861e-47
5.94872055597e-08
0.0138357357853
0.239926219099
0.392975933156
0.465414245097
0.495717427218
0.50770766394
0.512518076873
0.515035316626
0.516931777388
0.518667267258
0.520266366198
0.521862523916
0.523402215121
0.524895248285
0.526340249574
0.527742488306
0.529103726127
0.530425298519
0.531655108905
0.532909318213
0.534135888502
0.535330952583
0.536498032393
0.537642010198
0.538754667926
0.539844472506
0.540853735755
0.541895901893
0.542912418754
0.543904425543
0.544872586027
0.545810514447
0.546718492634
0.547594481749
0.548437308153
0.549246867771
0.549954533335
0.550680914771
0.551362070215
0.551995991199
0.55258061978
0.553114670826
0.553595731174
0.554021495186
0.554389692771
0.554698566074
0.55494835808
0.555138669227
0.555269684928
0.555407017118
9.99867023912e-266
9.99867023912e-266
9.99867023912e-266
9.99867023912e-266
9.99867023912e-266
9.99867023913e-266
9.99867023913e-266
9.99867023913e-266
9.99867023913e-266
9.99867023913e-266
9.99867023914e-266
9.99867023929e-266
9.9986702477e-266
9.99867071334e-266
9.99869643271e-266
1.00000642719e-265
1.00719357059e-265
1.09107700593e-265
6.49088413119e-27
5.56988619347e-06
0.0742982376543
0.289091892381
0.413148278067
0.469544682518
0.49280579121
0.502099872295
0.506157056498
0.508627157818
0.510702819877
0.512644724814
0.514508330162
0.516302939381
0.518042167791
0.519720214218
0.521292274221
0.522867208715
0.524394358294
0.525882480828
0.527324431451
0.52872842428
0.530038964584
0.531376889643
0.532679167577
0.533948441243
0.535188722518
0.536403725464
0.53758561631
0.53873926179
0.539801636483
0.540897865811
0.541957405805
0.542983696109
0.543975427797
0.544933620912
0.545852624062
0.546728976618
0.547499514503
0.548285818367
0.549021783755
0.549706362855
0.550337694851
0.550914001979
0.551431930316
0.551888518189
0.552282508437
0.552614047751
0.552882392616
0.553087082354
0.553228176094
0.553368058309
9.99867023862e-266
9.99867023862e-266
9.99867023862e-266
9.99867023863e-266
9.99867023863e-266
9.99867023863e-266
9.99867023863e-266
9.99867023863e-266
9.99867023863e-266
9.99867023864e-266
9.99867023865e-266
9.99867023926e-266
9.99867027352e-266
9.99867217942e-266
9.99877528511e-266
1.00043662285e-265
1.01398372134e-265
2.27947152094e-99
1.27425213132e-19
0.000100943726889
0.14215358923
0.329713456095
0.427689526614
0.470660340755
0.488501562439
0.49577016904
0.499381748405
0.501957033136
0.504249561661
0.506428751258
0.508519248069
0.510476937921
0.512417762722
0.514294917518
0.516105376139
0.517862869306
0.519505642309
0.521158405654
0.522760125292
0.52432161584
0.525837899127
0.527318229086
0.528694567174
0.530097008509
0.531465189666
0.532799797491
0.534097079742
0.535361325081
0.536532702475
0.537729582273
0.538887219002
0.540007039441
0.541086794935
0.542126626276
0.543124138048
0.544071464019
0.544903168952
0.545752813327
0.546544991837
0.547280332315
0.547957483363
0.548573531606
0.5491261713
0.549615030946
0.550037742855
0.550393692281
0.550682054276
0.550901377754
0.551052712546
0.551195280621
9.99867023818e-266
9.99867023818e-266
9.99867023818e-266
9.99867023819e-266
9.99867023819e-266
9.99867023819e-266
9.99867023819e-266
9.99867023819e-266
9.99867023819e-266
9.9986702382e-266
9.99867023824e-266
9.99867024067e-266
9.99867037473e-266
9.99867777262e-266
9.99907199287e-266
1.00202564406e-265
1.03525977345e-265
3.71846586878e-63
2.80244702304e-09
0.00266009319864
0.208035086169
0.362172110517
0.437306514125
0.469631428381
0.483083085469
0.488959485639
0.492329358035
0.495066776497
0.497593277117
0.499948466818
0.502271797418
0.504502729194
0.506662138659
0.50868197703
0.510695665111
0.512641149619
0.514520971498
0.516345229875
0.518052728463
0.519768156884
0.521433631145
0.523056778405
0.524635601876
0.526107550334
0.527605900572
0.529062039627
0.530476316516
0.531853282344
0.533193482985
0.534421281792
0.535680738981
0.5368915148
0.538057620973
0.539179048103
0.540254766759
0.541275909766
0.54217242271
0.54308024159
0.543929085268
0.544719099677
0.545446875023
0.546107698677
0.546698071351
0.547215700325
0.547664321728
0.54804359438
0.54835131932
0.548585229198
0.548746370371
0.548891749144
9.99867023779e-266
9.99867023779e-266
9.99867023779e-266
9.99867023779e-266
9.9986702378e-266
9.9986702378e-266
9.9986702378e-266
9.9986702378e-266
9.9986702378e-266
9.99867023781e-266
9.99867023797e-266
9.99867024669e-266
9.99867072336e-266
9.99869668012e-266
1.00000598655e-265
1.00706566441e-265
1.08940140051e-265
2.70663115226e-29
3.61956511814e-06
0.0585728026143
0.264846262726
0.386455994476
0.442656602482
0.466627817927
0.476783172229
0.481749215711
0.48509949239
0.487974015573
0.490741895475
0.493392891103
0.495938901039
0.498338859324
0.500704163029
0.502991494625
0.505136948124
0.507269627579
0.509335047039
0.511331811311
0.513208578913
0.515087098649
0.516910024988
0.518679840495
0.520396489583
0.522001618413
0.523629426786
0.525207106517
0.526738547594
0.528226905683
0.529606780739
0.53100462838
0.532354105309
0.533656176701
0.534911999102
0.536111879122
0.537259883356
0.53828308078
0.53931453729
0.540284287724
0.541190869605
0.542030621382
0.542803176655
0.54350386407
0.544130523729
0.54468151942
0.545159915735
0.545494968183
0.545823956366
0.546074379193
0.546247503316
0.546395948819
9.99867023744e-266
9.99867023744e-266
9.99867023744e-266
9.99867023744e-266
9.99867023745e-266
9.99867023745e-266
9.99867023745e-266
9.99867023745e-266
9.99867023745e-266
9.99867023747e-266
9.99867023827e-266
9.99867028189e-266
9.99867266908e-266
9.99879961263e-266
1.00055640282e-265
1.01577283775e-265
2.69251340608e-99
4.37174923333e-19
0.000110045515144
0.134889006438
0.31077692224
0.403038967425
0.444148320225
0.461856854249
0.469740772993
0.474145094769
0.477622479206
0.480804390997
0.483825770507
0.486667784515
0.489453421727
0.4921306495
0.494653345854
0.497140604601
0.499546520712
0.501801547863
0.504047735978
0.506217114046
0.508321946003
0.510294425203
0.512270428446
0.514191285434
0.516052256261
0.517795791934
0.519550758088
0.521250650335
0.522903707088
0.524503597951
0.52598329153
0.527486351155
0.528931510849
0.530322278411
0.531658282551
0.532938434638
0.534090895914
0.535251878029
0.536346445394
0.537375622067
0.538337807118
0.539226714776
0.540042487747
0.540784247505
0.54137539464
0.541961885524
0.542466866707
0.542892249417
0.543237115396
0.54350094122
0.543683703089
0.543833875791
9.99867023713e-266
9.99867023713e-266
9.99867023713e-266
9.99867023713e-266
9.99867023713e-266
9.99867023713e-266
9.99867023713e-266
9.99867023714e-266
9.99867023714e-266
9.99867023721e-266
9.9986702412e-266
9.99867045828e-266
9.99868224578e-266
9.99930029013e-266
1.00317230737e-265
1.04840360324e-265
4.93961670146e-47
5.49533387361e-08
0.00671218902523
0.206507903014
0.345696676345
0.413208453288
0.442832686624
0.455856636447
0.462210282587
0.466445053049
0.470106310101
0.473479721885
0.476763417531
0.479910019624
0.48287743019
0.485792870275
0.488533148579
0.49122793926
0.493826777667
0.496269216355
0.498693401728
0.501032177692
0.503303691898
0.505432554628
0.507559290789
0.509618932473
0.511623304847
0.513493499105
0.515379887533
0.51720469138
0.518973533423
0.520616918626
0.522274574792
0.523877814009
0.525416159744
0.526896657281
0.528246995871
0.529605978667
0.530898101849
0.532124219497
0.533281742597
0.534367790031
0.535381601791
0.536245486972
0.537105931439
0.537886196346
0.538586793845
0.539204770217
0.539736566821
0.540184171063
0.54054698181
0.540824820091
0.541018126868
0.54117175806
9.99867023684e-266
9.99867023684e-266
9.99867023685e-266
9.99867023685e-266
9.99867023685e-266
9.99867023685e-266
9.99867023685e-266
9.99867023685e-266
9.99867023686e-266
9.99867023723e-266
9.99867025751e-266
9.99867135697e-266
9.99872991955e-266
1.0001805224e-265
1.01064105698e-265
8.04958746204e-100
5.16172905044e-23
1.64269256756e-05
0.0801634471781
0.265610625258
0.369844846872
0.417980451373
0.439143961379
0.448926911336
0.454426489938
0.458689120933
0.462522223445
0.466209780265
0.469685604308
0.473076820888
0.476275299201
0.479407230129
0.482421650897
0.485261361109
0.488061651979
0.490757663007
0.493301215788
0.495811102022
0.498240301355
0.500521675043
0.502801676376
0.505004425359
0.507069131601
0.50914432351
0.511148714861
0.513090917633
0.514901778974
0.516722431184
0.51847962162
0.52017644307
0.521813509262
0.523308780751
0.524814262086
0.526249402168
0.527613661359
0.528905699217
0.530129461065
0.531194511897
0.532260364641
0.533244194586
0.534146438391
0.534965399755
0.535696939847
0.536341806586
0.536900024248
0.53737152371
0.537673772133
0.537966958313
0.538170786308
0.538327936744
9.99867023659e-266
9.99867023659e-266
9.99867023659e-266
9.99867023659e-266
9.99867023659e-266
9.99867023659e-266
9.99867023659e-266
9.9986702366e-266
9.99867023664e-266
9.99867023898e-266
9.99867036532e-266
9.99867716692e-266
9.99903139757e-266
1.00175152534e-265
1.03174142743e-265
1.70346644837e-63
1.64418826218e-11
0.000606725663488
0.16249924606
0.31012763989
0.384831820819
0.418412648867
0.433626857321
0.441297446382
0.446449283196
0.450877668901
0.454959345174
0.458911508712
0.462636762486
0.466264450645
0.469691341714
0.473037848086
0.476262116091
0.479294030964
0.482284832429
0.485096110498
0.487876983912
0.490561428043
0.493085762554
0.495593646495
0.498016631691
0.500286212739
0.50255822236
0.504753216638
0.50687788257
0.508862651737
0.510854892299
0.51277684425
0.514632771727
0.516345677338
0.518067531315
0.519719099825
0.521299236582
0.522811881569
0.524167385387
0.52552600219
0.526804857959
0.528003810475
0.529119309327
0.530149245745
0.531094256678
0.531868833095
0.532634955337
0.53330867413
0.533891557092
0.534382964699
0.534781090157
0.535086827231
0.535301354483
0.535461159962
9.99867023635e-266
9.99867023635e-266
9.99867023635e-266
9.99867023635e-266
9.99867023636e-266
9.99867023636e-266
9.99867023636e-266
9.99867023636e-266
9.9986702366e-266
9.99867024932e-266
9.99867092516e-266
9.99870684588e-266
1.00005641279e-265
1.00876610948e-265
1.3622886317e-100
1.39723111548e-26
4.61352943943e-06
0.0486519682811
0.232647166888
0.341161838086
0.392587616306
0.415859982865
0.426936804529
0.433440508678
0.438543126144
0.443135742108
0.447547980129
0.451699831303
0.455724958329
0.459526371623
0.463167172492
0.466723593189
0.470147568451
0.473371039668
0.476544419681
0.479529662787
0.482473573013
0.485316775925
0.487992603774
0.49064429534
0.493208129837
0.495618119685
0.498020447137
0.500344924625
0.502512453109
0.504680390268
0.506772796978
0.508794407813
0.510667953466
0.512545898106
0.514348926029
0.516079610296
0.517652851201
0.519230607119
0.520732796019
0.522150223168
0.52348319754
0.524733084751
0.525809651805
0.526883899107
0.527865518154
0.528754943938
0.529550423366
0.530251726116
0.530858115451
0.531369112659
0.531786591831
0.53202228438
0.532250547775
0.532414444465
9.99867023614e-266
9.99867023614e-266
9.99867023614e-266
9.99867023614e-266
9.99867023614e-266
9.99867023614e-266
9.99867023614e-266
9.99867023618e-266
9.99867023821e-266
9.99867034562e-266
9.99867603211e-266
9.99896818396e-266
1.00139955529e-265
1.02710828179e-265
5.44296151287e-99
9.95818455883e-15
0.000298277100802
0.13848266985
0.28449545019
0.359791869613
0.394578475773
0.410864156094
0.419517426963
0.42550855222
0.430677388826
0.435516774586
0.440182869336
0.44458288058
0.448857397912
0.452888128819
0.456747569622
0.460508808514
0.464053413689
0.467523903685
0.470869635954
0.474015468747
0.477124571099
0.480045225731
0.48293435549
0.485724179589
0.488349893421
0.490956919336
0.493476469521
0.495836902383
0.498193333862
0.500469835398
0.50259174373
0.504713356816
0.506753870851
0.508716088716
0.51051639917
0.512321769357
0.514044228537
0.515684376027
0.517241851355
0.518627837129
0.520014094865
0.521309957483
0.522514530914
0.523625419109
0.524643197125
0.525472534826
0.526299592804
0.527026905492
0.527655806724
0.528186121225
0.528617526508
0.528951400778
0.529188749543
0.529356456499
9.99867023594e-266
9.99867023594e-266
9.99867023594e-266
9.99867023594e-266
9.99867023594e-266
9.99867023595e-266
9.99867023595e-266
9.99867023623e-266
9.99867025075e-266
9.99867101371e-266
9.99871099521e-266
1.0000750044e-265
1.00920670279e-265
1.77911647147e-100
1.41488986357e-26
4.22020653359e-06
0.040676834539
0.214699993965
0.319105575183
0.369409335055
0.392769814157
0.404522441447
0.411762612974
0.417660408875
0.423021200108
0.42810182666
0.433011873691
0.437645455281
0.442072434191
0.446373893933
0.450436219094
0.454397589386
0.458127659937
0.461784691933
0.465215981241
0.468597354409
0.471771513822
0.474911805389
0.477936802722
0.480780500374
0.483603022019
0.486250374915
0.488885144869
0.491428863452
0.493887103043
0.496180327303
0.498475492562
0.500683928976
0.502720766197
0.504765432577
0.506725777872
0.508602763164
0.510306381844
0.512011732839
0.513624365391
0.515146656863
0.516578912058
0.517919294059
0.51907153104
0.520219472237
0.521267282469
0.522213895751
0.523063654627
0.523814455378
0.524463330159
0.525011983594
0.525367287809
0.525716270847
0.525965043152
0.526137563411
9.99867023576e-266
9.99867023576e-266
9.99867023576e-266
9.99867023576e-266
9.99867023576e-266
9.99867023577e-266
9.99867023582e-266
9.99867023883e-266
9.99867039586e-266
9.99867856443e-266
9.99909077865e-266
1.00197707657e-265
1.0346569492e-265
1.94668980214e-63
7.04512079061e-12
0.000391361071135
0.133797377833
0.269403976966
0.339236604785
0.372105085304
0.388151497177
0.39729390643
0.404063482219
0.410032979471
0.415625326371
0.420942057445
0.42607845751
0.430921701984
0.435554631661
0.440055210647
0.444297912345
0.448363772487
0.452334199265
0.456074216895
0.459749818189
0.46319988649
0.466598906763
0.469873508923
0.472947090764
0.475990707603
0.478842788511
0.481679327601
0.484417120468
0.48697767229
0.489531387607
0.491995919431
0.494281454634
0.496571561418
0.498772267937
0.500887157762
0.502820799495
0.504761154813
0.506609817367
0.508369514351
0.509942068893
0.51151727997
0.512995541633
0.514376107379
0.51565417047
0.516837067792
0.517817701078
0.518797229113
0.519672212476
0.520445318989
0.521113620362
0.521677893674
0.52213910874
0.522498363821