/*--------------------------------*- C++ -*----------------------------------*\
| =========                 |                                                 |
| \\      /  F ield         | foam-extend: Open Source CFD                    |
|  \\    /   O peration     | Version:     4.1                                |
|   \\  /    A nd           | Web:         http://www.foam-extend.org         |
|    \\/     M anipulation  |                                                 |
\*---------------------------------------------------------------------------*/
FoamFile
{
    version     2.0;
    format      ascii;
    class       volScalarField;
    location    "0.001";
    object      O;
}
// * * * * * * * * * * * * * * * * * * * * * * * * * * * * * * * * * * * * * //

dimensions      [0 0 0 0 0 0 0];

internalField   nonuniform List<scalar> 
8400
(
7.23199835637e-54
7.2319983564e-54
7.23199835643e-54
7.23199835646e-54
7.23199835649e-54
7.23199835652e-54
7.23199835655e-54
7.23199835658e-54
7.23199835661e-54
7.23199835663e-54
7.23199835666e-54
7.23199835669e-54
7.23199835671e-54
7.23199835674e-54
7.23199835676e-54
7.23199835683e-54
7.23199835926e-54
7.23199849614e-54
7.23200626051e-54
7.23242881302e-54
7.25565471674e-54
7.55468166645e-54
1.9860401544e-05
0.231243486053
0.222428969159
0.171215891795
0.129887279249
0.107140129132
0.0969461072228
0.0929829856329
0.0916410247069
0.091203536136
0.0910053255451
0.0908748958492
0.0907675335901
0.0906712153353
0.0905817470908
0.0904966347572
0.0904147354523
0.0903349441889
0.0902562029852
0.0901776345757
0.0900983899218
0.090017696475
0.0899351256039
0.0898499558488
0.0897617434679
0.0896700678604
0.0895740902916
0.0894952971753
0.0893910301389
0.0892837258158
0.0891729191592
0.0890589298975
0.0889423010455
0.0888238023251
0.0887043793686
0.088585139383
0.0884672970984
0.0883522430744
0.088241020312
0.0881353094314
0.0880365765871
0.0879462437286
0.0878656797367
0.0877961361705
0.0877387528989
0.0876942569139
0.0876629615349
0.087571870602
7.23199834635e-54
7.23199834636e-54
7.23199834638e-54
7.23199834639e-54
7.2319983464e-54
7.23199834641e-54
7.23199834642e-54
7.23199834643e-54
7.23199834645e-54
7.23199834646e-54
7.23199834647e-54
7.23199834648e-54
7.23199834649e-54
7.2319983465e-54
7.23199834651e-54
7.23199834671e-54
7.2319983575e-54
7.23199897321e-54
7.23203323807e-54
7.23393907155e-54
7.29121168312e-54
3.37017446914e-19
0.0622281598546
0.231869486239
0.203000249921
0.152323649583
0.117911748996
0.100835756954
0.0936751469995
0.0911367940701
0.090382249769
0.0901158338789
0.0899911302036
0.0898927070908
0.0897999450629
0.0897087455503
0.0895965226292
0.0895048319658
0.0894121888835
0.0893187588873
0.0892243806679
0.0891286903129
0.0890315616639
0.0889323258921
0.0888307580743
0.0887266392694
0.088619725248
0.0885096606652
0.088396294176
0.0882796351079
0.088159870887
0.088037186673
0.0879118607419
0.0877847267845
0.0876563660999
0.087527524868
0.0873993469949
0.0872727403073
0.0871491637193
0.0870300570082
0.0869160708573
0.0868084684168
0.0867084848323
0.0866176633557
0.0865374505534
0.08646893496
0.086412806808
0.0863694302354
0.0863390319398
0.0862637334097
7.23199834131e-54
7.23199834132e-54
7.23199834132e-54
7.23199834133e-54
7.23199834134e-54
7.23199834134e-54
7.23199834135e-54
7.23199834136e-54
7.23199834137e-54
7.23199834137e-54
7.23199834138e-54
7.23199834139e-54
7.23199834139e-54
7.2319983414e-54
7.23199834143e-54
7.23199834253e-54
7.23199840536e-54
7.23200199809e-54
7.23219952994e-54
7.24325876378e-54
7.41831324549e-54
7.10333200716e-11
0.230136061754
0.230368637493
0.180341201349
0.134825714403
0.108454154472
0.096373871745
0.0917201269937
0.0902162194887
0.0897968168156
0.0896610752814
0.0895822989412
0.0895141329835
0.0894253480791
0.0893559165608
0.0892837795173
0.0892091602731
0.0891320313165
0.0890525536906
0.0889702991282
0.0888850598005
0.0887965461369
0.0887046006377
0.0886091694849
0.088510171385
0.0884074462263
0.0883012372279
0.0881700955794
0.088055999002
0.0879378476097
0.0878168674171
0.0876936575835
0.0875689117629
0.0874434106062
0.0873174625305
0.0871920436431
0.0870688343715
0.0869496317492
0.0868353052084
0.0867261672536
0.0866226780275
0.0865266010282
0.0864400619108
0.0863654250701
0.0863013311641
0.08626763685
0.0862056075817
0.0861767715389
0.0861109972029
7.23199833809e-54
7.2319983381e-54
7.2319983381e-54
7.23199833811e-54
7.23199833811e-54
7.23199833812e-54
7.23199833812e-54
7.23199833813e-54
7.23199833813e-54
7.23199833814e-54
7.23199833814e-54
7.23199833815e-54
7.23199833815e-54
7.23199833816e-54
7.23199833823e-54
7.23199834222e-54
7.23199856871e-54
7.23201142026e-54
7.23271158571e-54
7.2707328042e-54
7.71973486203e-54
0.00668066147118
0.231602241742
0.213322545209
0.161175200822
0.122768350004
0.102715493259
0.0941432573388
0.0910412472792
0.0901202561567
0.0898421195404
0.0897333020137
0.0896559172485
0.0895846737404
0.0895145290002
0.0894225594767
0.0893504011394
0.089275951017
0.0891993163949
0.0891203161021
0.0890387471893
0.0889541036394
0.0888660585951
0.0887743482008
0.0886788260562
0.0885794076003
0.0884760298199
0.0883686722597
0.0882573716393
0.0881423770147
0.0880237946688
0.0879023857675
0.087778924983
0.0876540642753
0.0875285781229
0.087403528291
0.0872796192652
0.0871581107817
0.0870403151888
0.0869270511632
0.0868195912058
0.0867189347539
0.0866261412023
0.0865424097775
0.0864688723974
0.0864065033078
0.0863555029607
0.0863162074458
0.0862888262776
0.0862315066234
7.23199833583e-54
7.23199833583e-54
7.23199833584e-54
7.23199833584e-54
7.23199833585e-54
7.23199833585e-54
7.23199833585e-54
7.23199833586e-54
7.23199833586e-54
7.23199833587e-54
7.23199833587e-54
7.23199833587e-54
7.23199833588e-54
7.23199833589e-54
7.2319983362e-54
7.231998354e-54
7.23199937358e-54
7.23205593908e-54
7.23522474757e-54
7.30938603629e-54
6.82308922496e-19
0.122856335291
0.232007308427
0.196183619693
0.146721410556
0.114888628741
0.0995264919453
0.0932997353591
0.0911690720087
0.0905474061149
0.0903150304846
0.0901949819255
0.0900956875493
0.0900024302442
0.0899120424199
0.0898018883381
0.089712892354
0.0896228617897
0.0895317104335
0.0894392303402
0.0893448420531
0.0892480861471
0.0891485656578
0.0890462312551
0.0889405818101
0.0888315008278
0.0887189629326
0.088602962847
0.0884835216173
0.0883609956415
0.088235850712
0.0881085924139
0.0879792444795
0.0878486991695
0.0877180980951
0.0875887158191
0.0874617631965
0.0873379182476
0.0872177299385
0.0871025171141
0.0869937807419
0.0868924212802
0.086799560495
0.0867158893423
0.0866421752855
0.086579335223
0.0865281103056
0.0864889258998
0.0864618913282
0.0864086705473
7.23199833414e-54
7.23199833415e-54
7.23199833415e-54
7.23199833415e-54
7.23199833416e-54
7.23199833416e-54
7.23199833416e-54
7.23199833417e-54
7.23199833417e-54
7.23199833417e-54
7.23199833417e-54
7.23199833418e-54
7.23199833418e-54
7.2319983342e-54
7.23199833531e-54
7.23199839868e-54
7.23200202562e-54
7.2322018018e-54
7.24338791906e-54
7.42034338024e-54
7.27104571832e-11
0.230156589185
0.230395645978
0.180786667033
0.13582088306
0.109763891028
0.0978933861106
0.0932788534358
0.0917590638655
0.0912859384828
0.0910847302783
0.0909409354697
0.0908117590699
0.0906881119484
0.0905672852201
0.0904488078584
0.0903318599314
0.0902162342907
0.0900802244717
0.0899651261389
0.0898487597631
0.0897310838848
0.0896114830446
0.0894894458395
0.0893650266977
0.0892380799535
0.0891085677798
0.0889767718329
0.0888425478172
0.0887062398066
0.0885682590936
0.0884286492477
0.0882878226647
0.0881467135723
0.0880069004785
0.0878695126079
0.0877353085274
0.0876040305987
0.0874765010533
0.0873551706436
0.0872420669979
0.0871377997939
0.0870417717809
0.086975824958
0.0868988314275
0.0868336853082
0.0867809943628
0.0867410911646
0.0867144054491
0.086643776786
7.23199833284e-54
7.23199833284e-54
7.23199833284e-54
7.23199833285e-54
7.23199833285e-54
7.23199833285e-54
7.23199833285e-54
7.23199833286e-54
7.23199833286e-54
7.23199833286e-54
7.23199833286e-54
7.23199833287e-54
7.23199833287e-54
7.23199833293e-54
7.23199833593e-54
7.23199850702e-54
7.23200824023e-54
7.23253998516e-54
7.26169866635e-54
7.62025185458e-54
0.000370752779476
0.23141337317
0.219080411964
0.167704104193
0.127964852502
0.10663073513
0.0973365826912
0.0938628753515
0.092721440488
0.0923148709779
0.0920963355556
0.0919173261429
0.0917504654575
0.0915889054667
0.0914317307028
0.0912780276601
0.0911274347276
0.0909791661917
0.0908324408155
0.0906866201921
0.0905407448191
0.0903947729492
0.0902482207023
0.090100917368
0.089952572337
0.0898027332387
0.0896513444311
0.0894978515958
0.0893429044709
0.0891868932957
0.0890303612441
0.0888739417667
0.0887176335462
0.0885621727965
0.0884085828272
0.0882582259582
0.0881121625191
0.0879708530733
0.0878345284373
0.0877048214107
0.0875832579942
0.0874710951798
0.0873691841325
0.0872779878926
0.0871980437551
0.0871301294453
0.0870749442174
0.0870328696619
0.0870039889109
0.0869541031379
7.2319983318e-54
7.2319983318e-54
7.2319983318e-54
7.23199833181e-54
7.23199833181e-54
7.23199833181e-54
7.23199833181e-54
7.23199833181e-54
7.23199833182e-54
7.23199833182e-54
7.23199833182e-54
7.23199833182e-54
7.23199833183e-54
7.23199833198e-54
7.23199834049e-54
7.23199882762e-54
7.23202615622e-54
7.23354509427e-54
7.28614384494e-54
2.22465377908e-19
0.042213087968
0.231801953648
0.206506234137
0.156568346714
0.122180987599
0.104827975746
0.0974929320147
0.0948483158453
0.0939531669178
0.0935643090433
0.0933120604408
0.0930884337215
0.0928763598165
0.0926719813329
0.0924735503081
0.0922800025958
0.0920904558503
0.0919044416124
0.0917211280313
0.0915393763393
0.0913593092886
0.0911804874221
0.0910027313948
0.090825251489
0.0906476068498
0.0904690578492
0.090290112255
0.0901108741179
0.0899321020341
0.08975344379
0.0895753895678
0.089397676418
0.0892216729523
0.0890478558094
0.0888773253897
0.0887108541373
0.088549687276
0.0883949352148
0.0882472887511
0.0881075363513
0.0879766112698
0.0878549068913
0.0877652043428
0.087666398626
0.0875806777111
0.0875080138405
0.087448957838
0.0874039653305
0.0873731177413
0.0873235423125
7.23199833096e-54
7.23199833096e-54
7.23199833096e-54
7.23199833096e-54
7.23199833096e-54
7.23199833097e-54
7.23199833097e-54
7.23199833097e-54
7.23199833097e-54
7.23199833097e-54
7.23199833098e-54
7.23199833098e-54
7.23199833099e-54
7.23199833142e-54
7.2319983558e-54
7.23199974567e-54
7.23207634496e-54
7.23634631204e-54
7.32536163673e-54
9.4990141867e-19
0.163480316898
0.232070319127
0.194176750653
0.147412124538
0.118002748597
0.103949277013
0.0981809677393
0.0961257749696
0.095390067123
0.0950140860117
0.0946983453158
0.0944274275305
0.0941664696031
0.0939139188997
0.0936693048483
0.0934312063829
0.0931980836868
0.0929694955767
0.0927453494173
0.0925253105485
0.0923082109381
0.0920934222829
0.091880566534
0.0916690808785
0.0914580903929
0.0912481134344
0.0910394167799
0.0908314495704
0.0906455356772
0.0904391859624
0.0902350180049
0.0900334068263
0.0898355645626
0.0896413601399
0.0894514827515
0.0892667801848
0.0890884861474
0.0889176158627
0.0887548707742
0.0886015750129
0.0884585088238
0.0883268581781
0.0882076319016
0.0881015896978
0.0880093601766
0.0879313357438
0.0878679191965
0.0878193408248
0.0877858592127
0.0877356828285
7.23199833026e-54
7.23199833026e-54
7.23199833026e-54
7.23199833026e-54
7.23199833027e-54
7.23199833027e-54
7.23199833027e-54
7.23199833027e-54
7.23199833027e-54
7.23199833027e-54
7.23199833028e-54
7.23199833028e-54
7.2319983303e-54
7.23199833157e-54
7.23199840382e-54
7.23200251743e-54
7.2322279238e-54
7.24473973077e-54
7.4366081531e-54
9.13407927609e-11
0.230331351535
0.23029949623
0.182201996458
0.139706124882
0.115086005995
0.103771027671
0.0992490509306
0.0976419032422
0.0969892839508
0.0965893545638
0.0962478352926
0.0959257261692
0.0956139299402
0.0953120983294
0.0950191746158
0.0947337377198
0.0944552257987
0.0941820392977
0.0939141567378
0.0936518024552
0.0933939959749
0.0931391945393
0.0928872503773
0.0926385660971
0.092392796662
0.0921493202848
0.0919079568725
0.0916690304311
0.0914315990619
0.0911969425026
0.0909658562729
0.0907387988266
0.0905161303283
0.090297789658
0.0900853190114
0.0898798994521
0.0896820368932
0.0895143997083
0.0893352449537
0.0891677938085
0.0890120284562
0.0888688823596
0.0887393022448
0.0886241845
0.0885241441296
0.0884396091146
0.0883709494564
0.0883185219596
0.0882822827961
0.0882316062537
7.23199832967e-54
7.23199832968e-54
7.23199832968e-54
7.23199832968e-54
7.23199832968e-54
7.23199832968e-54
7.23199832968e-54
7.23199832969e-54
7.23199832969e-54
7.23199832969e-54
7.23199832969e-54
7.23199832969e-54
7.23199832975e-54
7.23199833298e-54
7.2319985153e-54
7.23200878946e-54
7.23256542517e-54
7.26273485227e-54
7.63209701427e-54
0.000381816786921
0.231396505942
0.220363873057
0.171300759804
0.133506706034
0.113209900231
0.104182819225
0.100655457265
0.0993422065352
0.098741180824
0.0983017804994
0.0979063247044
0.0975294340774
0.0971648914018
0.0968100574399
0.0964648647306
0.0961296998463
0.0958021597289
0.095481551763
0.0951687262334
0.0948623796724
0.0945614962077
0.0942655186117
0.0939732597742
0.0936855620469
0.0934024582224
0.0931220867476
0.0928669924763
0.0925937859251
0.0923240622819
0.09205877256
0.0917987422283
0.0915439661914
0.0912941703178
0.091051040822
0.0908157551609
0.0905888009255
0.090371180368
0.0901639741431
0.0899682867833
0.0897843758586
0.0896134511946
0.0894567403997
0.0893146701751
0.0892119765798
0.0891027743412
0.0890113655752
0.0889374321013
0.0888809874849
0.0888418809057
0.0887904577457
7.23199832918e-54
7.23199832918e-54
7.23199832918e-54
7.23199832918e-54
7.23199832918e-54
7.23199832919e-54
7.23199832919e-54
7.23199832919e-54
7.23199832919e-54
7.23199832919e-54
7.23199832919e-54
7.2319983292e-54
7.23199832936e-54
7.23199833872e-54
7.23199886877e-54
7.23202829999e-54
7.23364689117e-54
7.28844263838e-54
2.35515193518e-19
0.0427751492686
0.231785778861
0.208512963563
0.161214671111
0.128775022284
0.112249389602
0.105090886806
0.102344024597
0.101243678772
0.100636785614
0.10014654086
0.0996904621912
0.0992512107103
0.0988275294802
0.098416356762
0.0980164331565
0.0976287166782
0.0972508612819
0.0968817945913
0.0965195620484
0.0961867180699
0.0958403854838
0.0955009309936
0.0951669406592
0.0948380221936
0.094515321032
0.0941977540914
0.0938841698205
0.0935761775978
0.0932741433646
0.0929776775566
0.0926867828881
0.0924233572152
0.0921463150899
0.0918773338742
0.0916168838514
0.0913666624003
0.0911277055889
0.0909007369749
0.0906866116227
0.0904864823405
0.0903009464052
0.0901306558781
0.0899770497269
0.089840905341
0.0897231174014
0.08962403555
0.0895438688061
0.0894827864962
0.0894407268121
0.0893891455379
7.23199832875e-54
7.23199832876e-54
7.23199832876e-54
7.23199832876e-54
7.23199832876e-54
7.23199832876e-54
7.23199832876e-54
7.23199832876e-54
7.23199832876e-54
7.23199832877e-54
7.23199832877e-54
7.23199832878e-54
7.23199832929e-54
7.23199835794e-54
7.23199997112e-54
7.23208782643e-54
7.23692085313e-54
7.33395508154e-54
1.04955713709e-18
0.173726321826
0.232066482238
0.196265738629
0.152433745712
0.125208532327
0.11201455845
0.106421933063
0.104250069059
0.103287231156
0.102653109577
0.10210148018
0.101580272829
0.101078678658
0.100591989704
0.100142920338
0.099685699488
0.0992404629371
0.098808045537
0.0983871469965
0.0979762752664
0.0975733695617
0.0971802449655
0.0967954437456
0.0964172447975
0.0960466049267
0.0957039156937
0.0953467897491
0.0949965558208
0.0946531269089
0.0943153368316
0.0939853470978
0.0936635240279
0.0933495879062
0.093044553702
0.0927475412339
0.0924843537226
0.0922105391349
0.0919497421908
0.091701375793
0.0914674675971
0.0912495756189
0.0910486079884
0.0908651036371
0.0906997072192
0.0905531718711
0.0904261705689
0.0903192372852
0.0902327445015
0.0901666168572
0.0901212085971
0.0900689807641
7.23199832839e-54
7.23199832839e-54
7.23199832839e-54
7.23199832839e-54
7.23199832839e-54
7.23199832839e-54
7.23199832839e-54
7.2319983284e-54
7.2319983284e-54
7.2319983284e-54
7.2319983284e-54
7.23199832843e-54
7.23199833015e-54
7.23199842648e-54
7.23200382997e-54
7.23229573018e-54
7.24820015362e-54
7.47664608792e-54
8.65337273287e-08
0.2306809569
0.229709566702
0.183993125974
0.14501483549
0.122715205696
0.112356595101
0.108061087038
0.10632591456
0.105426973339
0.104756159605
0.104142760978
0.103576925317
0.103010384833
0.102462639759
0.101930613807
0.101415043773
0.100913408053
0.100425475663
0.0999510504168
0.0995088905044
0.0990568770406
0.0986141557529
0.0981820546435
0.0977593290477
0.0973443552474
0.0969394183906
0.0965421567623
0.0961738509779
0.0957927912008
0.095420655537
0.0950571467886
0.0947017970206
0.0943569394782
0.0940228334804
0.0936998364555
0.0933889073592
0.0930898703342
0.0928283984615
0.0925594296613
0.0923071277649
0.0920719230159
0.0918550120515
0.0916565945305
0.0914777826292
0.0913195527199
0.0911826526273
0.0910677132786
0.0909748124135
0.0909040984248
0.0908554966053
0.0908028870383
7.23199832807e-54
7.23199832807e-54
7.23199832807e-54
7.23199832807e-54
7.23199832807e-54
7.23199832807e-54
7.23199832807e-54
7.23199832808e-54
7.23199832808e-54
7.23199832808e-54
7.23199832808e-54
7.23199832817e-54
7.23199833291e-54
7.23199859588e-54
7.23201312088e-54
7.23278560717e-54
7.2733749514e-54
7.74710609105e-54
0.0054990302155
0.231535843842
0.218128586404
0.172460752949
0.139092614294
0.121282470838
0.113290044074
0.109987322879
0.108547864659
0.107682923587
0.106957685824
0.106278413952
0.105624695628
0.104993633775
0.104380872477
0.10378802479
0.103231734732
0.102672754944
0.102129434179
0.101599532795
0.101084272966
0.100581526238
0.100112096869
0.099631557336
0.0991627523214
0.0987050886136
0.0982571793805
0.0978176098977
0.0973891891727
0.0969702309464
0.0965838788906
0.0961841281965
0.0957970436953
0.0954215651914
0.0950581787437
0.0947064524138
0.0943688556358
0.0940463506395
0.0937625976988
0.0934725618694
0.0932009010437
0.0929480008399
0.0927146311915
0.0925013011438
0.0923096197345
0.0921404842277
0.0919943725597
0.0918714649765
0.0917720409333
0.0916962748961
0.0916441319887
0.0915907801215
7.23199832779e-54
7.23199832779e-54
7.23199832779e-54
7.23199832779e-54
7.23199832779e-54
7.23199832779e-54
7.23199832779e-54
7.23199832779e-54
7.2319983278e-54
7.2319983278e-54
7.2319983278e-54
7.23199832815e-54
7.2319983475e-54
7.23199942385e-54
7.23205765272e-54
7.23521513424e-54
7.31172228229e-54
6.04309232251e-19
0.102053842611
0.231913422196
0.20486729557
0.162276771491
0.134661764264
0.120835792968
0.114702611812
0.112151153695
0.110892919423
0.110004029346
0.109213629976
0.108460040111
0.107735483036
0.107054863455
0.106378015429
0.105720697123
0.105084837361
0.104466354515
0.103887129428
0.103302472407
0.10273418011
0.102179443432
0.101639802497
0.101111216099
0.100619054023
0.100116653831
0.0996255255473
0.0991454601791
0.0986779997355
0.0982213835297
0.0977976396766
0.0973638786627
0.0969437837526
0.0965368892937
0.0961435384909
0.0957640704911
0.0953996235772
0.0950524875293
0.0947476196149
0.09443562097
0.0941443682491
0.0938737086736
0.0936241972648
0.093397003191
0.0931932467439
0.0930127007964
0.0928566224273
0.0927252381248
0.0926188469808
0.0925378862408
0.0924821376629
0.0924281491247
7.23199832754e-54
7.23199832754e-54
7.23199832754e-54
7.23199832754e-54
7.23199832754e-54
7.23199832754e-54
7.23199832755e-54
7.23199832755e-54
7.23199832755e-54
7.23199832755e-54
7.23199832757e-54
7.23199832894e-54
7.23199840466e-54
7.23200258261e-54
7.23222521823e-54
7.24418912092e-54
7.43187864422e-54
6.63144909354e-11
0.229757582098
0.231899940863
0.191106050495
0.153643122629
0.131631813074
0.121097610984
0.116492587796
0.11446416544
0.113311493962
0.112379092497
0.111517119234
0.110712246499
0.109915047068
0.109146825372
0.108401080542
0.107701018555
0.107001460601
0.106323489578
0.105666548169
0.10502583556
0.104425487212
0.103820548972
0.103231625047
0.102656399215
0.102095310037
0.101571431157
0.101036810924
0.100516018766
0.100009165025
0.099514702519
0.0990324793853
0.098590033915
0.0981352033365
0.0976971798743
0.0972746870643
0.0968677412609
0.0964765717646
0.0961045083126
0.095777793297
0.0954463763187
0.0951361431217
0.0948469984415
0.0945802358194
0.0943377017705
0.094121044008
0.0939306860712
0.0937657424991
0.0936263168729
0.0935130724275
0.0934270427601
0.0933679261944
0.0933132247582
7.23199832732e-54
7.23199832732e-54
7.23199832732e-54
7.23199832732e-54
7.23199832732e-54
7.23199832732e-54
7.23199832732e-54
7.23199832732e-54
7.23199832733e-54
7.23199832733e-54
7.23199832742e-54
7.23199833235e-54
7.23199860154e-54
7.2320132606e-54
7.23278311863e-54
7.27265260212e-54
7.7376431207e-54
0.002906495074
0.231466553694
0.221137246424
0.178288840632
0.146849522439
0.129884670764
0.122016305
0.118572333818
0.116892231471
0.115766554865
0.114799379819
0.113866197818
0.112969312738
0.11210462573
0.111285972849
0.110476966291
0.109691914341
0.108952654804
0.108216128835
0.107500511483
0.106806428401
0.106152536993
0.10549555862
0.104856187086
0.104233907134
0.1036283817
0.103060410096
0.102483525007
0.101922597559
0.101376732276
0.100845680559
0.100352329106
0.0998510579284
0.0993661533127
0.0988975904593
0.098444857522
0.098011271315
0.0975958090824
0.0972251957147
0.0968509042465
0.0964983077918
0.0961683892204
0.0958623164516
0.0955805451527
0.0953247075338
0.0950959821509
0.0948943797552
0.0947193163768
0.0945969543506
0.0944766075907
0.0943850739685
0.094321943285
0.0942666645396
7.23199832712e-54
7.23199832712e-54
7.23199832712e-54
7.23199832712e-54
7.23199832712e-54
7.23199832713e-54
7.23199832713e-54
7.23199832713e-54
7.23199832713e-54
7.23199832714e-54
7.23199832759e-54
7.23199835223e-54
7.23199970039e-54
7.23207139168e-54
7.23589159084e-54
7.32182630529e-54
7.24181362253e-19
0.117258029373
0.231918237442
0.206351595224
0.167136531205
0.14200957775
0.129332514325
0.12352143094
0.120886040037
0.119423205654
0.118273553488
0.117218270304
0.116212933865
0.115262618926
0.114325770049
0.113421793043
0.112567320483
0.111721574408
0.110900181932
0.110128089597
0.10935628566
0.108608103227
0.107880196872
0.107196179108
0.10650894288
0.105838734848
0.105187299541
0.104575897142
0.103958723054
0.10335826522
0.102773165441
0.10220558573
0.101679047336
0.101143412425
0.100627100091
0.100129199518
0.0996499447856
0.0991898023504
0.0987749218565
0.0983563476183
0.0979608300451
0.0975884975334
0.0972399185091
0.0969174738406
0.0966214307318
0.096351580617
0.0961367365851
0.0959231973051
0.0957392311406
0.0955843203089
0.0954587892057
0.0953627323834
0.0952963648833
0.0952408171043
7.23199832694e-54
7.23199832695e-54
7.23199832695e-54
7.23199832695e-54
7.23199832695e-54
7.23199832695e-54
7.23199832695e-54
7.23199832695e-54
7.23199832695e-54
7.23199832699e-54
7.23199832925e-54
7.23199845184e-54
7.23200510882e-54
7.23235414896e-54
7.25066489427e-54
7.50610833498e-54
1.33527014289e-07
0.230651015304
0.231126576774
0.191478214366
0.158095355642
0.138936695793
0.129673751007
0.125428595297
0.12334248902
0.121960315732
0.120765225129
0.119659953054
0.118579601219
0.117539145739
0.116553858771
0.115581140115
0.114663139368
0.113755765331
0.112876872585
0.112047654573
0.111221643099
0.110421933669
0.109642223594
0.108909749125
0.108175351221
0.107462220616
0.106765499973
0.10611385399
0.105455107438
0.10481592556
0.104194388073
0.103615942124
0.103030363977
0.102462742035
0.101916502955
0.101389453086
0.100907609994
0.100421456003
0.099958775014
0.0995189240815
0.0991029028115
0.0987118352747
0.0983461735368
0.098034560079
0.0977233786174
0.0974410901336
0.0971872771642
0.0969634560564
0.0967705312843
0.0966082230336
0.0964767644952
0.0963761903176
0.0963062780349
0.096249807611
7.23199832678e-54
7.23199832678e-54
7.23199832679e-54
7.23199832679e-54
7.23199832679e-54
7.23199832679e-54
7.23199832679e-54
7.23199832679e-54
7.23199832679e-54
7.231998327e-54
7.23199833845e-54
7.23199895937e-54
7.23203203255e-54
7.23376880869e-54
7.29284460771e-54
2.06713268505e-19
0.0321421076195
0.23167380783
0.217044487551
0.178153604289
0.151506262502
0.137424179001
0.130775845553
0.12762897273
0.125857827866
0.124488003776
0.123253227545
0.122058595039
0.12092760477
0.119818310369
0.118767165607
0.117732498789
0.116732877335
0.115786816708
0.114849889455
0.113944301746
0.113085957211
0.112235205058
0.111407892054
0.11062904916
0.109847802049
0.109090370895
0.108378717213
0.107660041278
0.10696451366
0.106288806007
0.105656896567
0.1050193605
0.104402722316
0.103805806563
0.103228371965
0.102700026364
0.10216646557
0.101657057869
0.101171053409
0.100710232874
0.100272799561
0.0998912790538
0.0995087253998
0.0991553132544
0.0988307557974
0.0985358142471
0.0982720521265
0.0980393804228
0.097837950816
0.0976676409444
0.0975588589521
0.0974532315277
0.0973800279997
0.0973228057914
7.23199832664e-54
7.23199832664e-54
7.23199832664e-54
7.23199832664e-54
7.23199832664e-54
7.23199832664e-54
7.23199832664e-54
7.23199832664e-54
7.23199832667e-54
7.23199832799e-54
7.23199839934e-54
7.23200224054e-54
7.23220229206e-54
7.24264103726e-54
7.41200880858e-54
2.94621916276e-11
0.226534276471
0.232095352898
0.2007958516
0.167333018208
0.147237050571
0.137223650922
0.132459283075
0.130032706746
0.128408147243
0.127005744526
0.125706494297
0.12444134357
0.123242598515
0.122068552126
0.120953558041
0.119859215431
0.118800405823
0.117799561969
0.116807651514
0.115872001087
0.114942323324
0.114041217904
0.113190771613
0.112341872828
0.111518875286
0.110744170233
0.109966708462
0.109212137249
0.10847977027
0.107793847417
0.107102384
0.106434044347
0.105786806437
0.105188286803
0.104584561347
0.104003998028
0.1034470603
0.102912877047
0.102433413359
0.101951733783
0.10149755193
0.101070477289
0.100672942894
0.100305309025
0.0999676623331
0.0996905120145
0.0994159207688
0.0991741001763
0.0989648084537
0.0987885059358
0.0986454434122
0.0985357167034
0.0984589457706
0.0984011270932
7.23199832651e-54
7.23199832651e-54
7.23199832651e-54
7.23199832651e-54
7.23199832651e-54
7.23199832651e-54
7.23199832651e-54
7.23199832651e-54
7.23199832665e-54
7.23199833383e-54
7.23199871551e-54
7.23201900171e-54
7.23306790052e-54
7.28225585428e-54
3.44164895261e-20
0.00837874399737
0.231490630317
0.223044719314
0.185761140034
0.15930610717
0.144942779581
0.137940920587
0.134505470941
0.132486495961
0.130901710302
0.129468522627
0.128083448347
0.126771566615
0.12549032639
0.124272779898
0.123100710536
0.121948846573
0.120834635299
0.119780874279
0.118738040676
0.117753419855
0.11677712554
0.115830705129
0.114936415195
0.114046153322
0.113182693453
0.112367806969
0.111551974916
0.110760238197
0.110019056076
0.109274588707
0.108553740922
0.107855358826
0.107205813519
0.10655321288
0.105924682211
0.105320099371
0.104769154591
0.104214695297
0.103686079465
0.103186347729
0.102715273893
0.102272611489
0.10189104929
0.101509607982
0.101160669461
0.100844249387
0.100560791617
0.100310767454
0.100094215587
0.0999116175977
0.0997625343783
0.0996788332767
0.0995975783964
0.0995387884101
7.23199832639e-54
7.23199832639e-54
7.23199832639e-54
7.23199832639e-54
7.23199832639e-54
7.23199832639e-54
7.23199832639e-54
7.23199832641e-54
7.23199832756e-54
7.23199838822e-54
7.23200159966e-54
7.23216659222e-54
7.24065328876e-54
7.38584314964e-54
1.5987096797e-18
0.210525505271
0.232026306455
0.20569611223
0.173693267377
0.154248379546
0.144300288036
0.139406691665
0.136766278045
0.134938068814
0.13335484577
0.13186303003
0.13041509206
0.129040945425
0.127696978976
0.126422369737
0.125193558484
0.123987795344
0.122845402715
0.121721499007
0.120631321504
0.119602563812
0.11858068566
0.117615846918
0.116657793073
0.115728568481
0.114851250726
0.113976230289
0.113126896373
0.112328897785
0.111528766752
0.110753629306
0.110028932668
0.109301919887
0.108599564746
0.10792197632
0.107298403658
0.106671890663
0.106071833666
0.105498906488
0.104953838749
0.104467754382
0.103980675899
0.103524503471
0.103099694451
0.102707404291
0.102347230834
0.102053490974
0.101760147997
0.101502045126
0.10127876482
0.101090551764
0.100937410747
0.100819055849
0.100735138564
0.100675533539
7.23199832627e-54
7.23199832628e-54
7.23199832628e-54
7.23199832628e-54
7.23199832628e-54
7.23199832628e-54
7.23199832628e-54
7.23199832644e-54
7.23199833464e-54
7.23199876552e-54
7.23202134504e-54
7.23317289651e-54
7.28474410201e-54
4.50810869124e-20
0.00845769778897
0.23147248808
0.224565654199
0.18978090141
0.165073700767
0.15153358398
0.14477558306
0.141278112525
0.139111483713
0.137338892082
0.135716973816
0.134169394629
0.132662384325
0.131230492915
0.129853703059
0.128506700208
0.127227251411
0.125971741108
0.124782736629
0.123610285592
0.122503437725
0.121406055019
0.120371839729
0.119342871649
0.118348043417
0.117408096116
0.116471504126
0.115589511815
0.114708071298
0.113853793198
0.113025115958
0.112249673625
0.111470398575
0.110718438122
0.110022598861
0.109322299485
0.108648386473
0.108001009655
0.107412220371
0.106821599923
0.106260793647
0.105729533193
0.105229345392
0.104759791475
0.104355426624
0.10395213885
0.10358381096
0.103250001771
0.102950173472
0.10268509433
0.102455993316
0.102262244715
0.102137248586
0.102014317657
0.101926878455
0.101865881682
7.23199832617e-54
7.23199832617e-54
7.23199832617e-54
7.23199832617e-54
7.23199832617e-54
7.23199832618e-54
7.23199832621e-54
7.23199832791e-54
7.23199841659e-54
7.23200302978e-54
7.23223582749e-54
7.24391483634e-54
7.42847419832e-54
3.44830008424e-11
0.225642804096
0.232050285111
0.206664135573
0.177346283114
0.159799913756
0.150724244868
0.146084314459
0.143405069842
0.141413583563
0.139646532511
0.137975002831
0.136372929708
0.134813713988
0.133332389974
0.131905660746
0.130509757704
0.129186634453
0.12791041069
0.126656291647
0.12546888193
0.12429505976
0.12318724698
0.122090365922
0.121026515171
0.120023542172
0.119025199872
0.118085896349
0.117147622573
0.116238002889
0.115384611137
0.114529863146
0.113701959346
0.112930942502
0.112156375434
0.111408937177
0.110688378012
0.110028770066
0.10936334169
0.108728599125
0.108122627789
0.10757957915
0.107034296219
0.106521559433
0.106041682403