/*--------------------------------*- C++ -*----------------------------------*\
| =========                 |                                                 |
| \\      /  F ield         | foam-extend: Open Source CFD                    |
|  \\    /   O peration     | Version:     4.1                                |
|   \\  /    A nd           | Web:         http://www.foam-extend.org         |
|    \\/     M anipulation  |                                                 |
\*---------------------------------------------------------------------------*/
FoamFile
{
    version     2.0;
    format      ascii;
    class       volScalarField;
    location    "0.001";
    object      O2;
}
// * * * * * * * * * * * * * * * * * * * * * * * * * * * * * * * * * * * * * //

dimensions      [0 0 0 0 0 0 0];

internalField   nonuniform List<scalar> 
8400
(
0.232918
0.232918
0.232918
0.232918
0.232918
0.232918
0.232918
0.232918
0.232918
0.232918
0.232918
0.232918
0.232918
0.232918
0.232918
0.232918
0.232918
0.232918
0.232918
0.232918
0.232918
0.232918
0.232244900089
4.53775004795e-05
3.77473420813e-07
1.06679752172e-07
6.46938384981e-08
5.1416113753e-08
4.73587026393e-08
4.60382119046e-08
4.54905043319e-08
4.52076376841e-08
4.49909177314e-08
4.48054721329e-08
4.46391969874e-08
4.44872211696e-08
4.43463039214e-08
4.4214457154e-08
4.40890760399e-08
4.39683470333e-08
4.3850627127e-08
4.37345488804e-08
4.36188398818e-08
4.35023620522e-08
4.33852047119e-08
4.32657123008e-08
4.3142917728e-08
4.30161870641e-08
4.2884934741e-08
4.2775795062e-08
4.26353017902e-08
4.24912015589e-08
4.23428065883e-08
4.21906389418e-08
4.20354432016e-08
4.18789188288e-08
4.17223590592e-08
4.15664289164e-08
4.14127077568e-08
4.12629508178e-08
4.11195880129e-08
4.09840689697e-08
4.08580201622e-08
4.07432953866e-08
4.06416011936e-08
4.05544866586e-08
4.04838149275e-08
4.04303201243e-08
4.03943535235e-08
4.03615366219e-08
0.232918
0.232918
0.232918
0.232918
0.232918
0.232918
0.232918
0.232918
0.232918
0.232918
0.232918
0.232918
0.232918
0.232918
0.232918
0.232918
0.232918
0.232918
0.232918
0.232918
0.232918
0.232917803119
0.157588018606
1.17763183708e-05
1.84274689893e-07
8.29267973824e-08
5.6045623692e-08
4.7667920481e-08
4.52061161054e-08
4.44704669155e-08
4.42513794195e-08
4.41216632174e-08
4.4042344871e-08
4.3965561266e-08
4.38876865326e-08
4.38080007325e-08
4.36993678527e-08
4.3615870887e-08
4.35296128552e-08
4.34403325069e-08
4.33477301296e-08
4.32514460748e-08
4.31526433289e-08
4.30491914736e-08
4.29407650272e-08
4.28270290698e-08
4.27077038635e-08
4.25839578516e-08
4.24543908371e-08
4.23190744129e-08
4.21781916885e-08
4.20325823587e-08
4.18830293555e-08
4.17297363205e-08
4.15736538469e-08
4.14162571848e-08
4.1260411443e-08
4.11057544668e-08
4.09539326398e-08
4.08067296821e-08
4.06664539889e-08
4.05343646729e-08
4.04119026874e-08
4.03008496536e-08
4.020277014e-08
4.01190431016e-08
4.00514451042e-08
4.00001466397e-08
3.99655109355e-08
3.99348150035e-08
0.232918
0.232918
0.232918
0.232918
0.232918
0.232918
0.232918
0.232918
0.232918
0.232918
0.232918
0.232918
0.232918
0.232918
0.232918
0.232918
0.232918
0.232918
0.232918
0.232918
0.232918
0.232911766951
0.000189820953752
1.00255482081e-06
1.20600956719e-07
6.70545536747e-08
5.05560641648e-08
4.55234803334e-08
4.41374055409e-08
4.3740245824e-08
4.3638212537e-08
4.36077206604e-08
4.35821731494e-08
4.35528473922e-08
4.34905346356e-08
4.34488375365e-08
4.34007799098e-08
4.33464492684e-08
4.32859739662e-08
4.32205302174e-08
4.31486045097e-08
4.30700786162e-08
4.29847500766e-08
4.28924807141e-08
4.27935828421e-08
4.26884689281e-08
4.25762509648e-08
4.24570561494e-08
4.23043804664e-08
4.21721919254e-08
4.20342828146e-08
4.18909823933e-08
4.17430997055e-08
4.15918155138e-08
4.14398886678e-08
4.12866592444e-08
4.11334798023e-08
4.09819464512e-08
4.0834986671e-08
4.06933664008e-08
4.05582022541e-08
4.04308754968e-08
4.03132507919e-08
4.02073729922e-08
4.01148390254e-08
4.00356615926e-08
3.99951385666e-08
3.99215134965e-08
3.98881181155e-08
3.98590566717e-08
0.232918
0.232918
0.232918
0.232918
0.232918
0.232918
0.232918
0.232918
0.232918
0.232918
0.232918
0.232918
0.232918
0.232918
0.232918
0.232918
0.232918
0.232918
0.232918
0.232918
0.232918
0.220043497566
2.26501736907e-05
2.4651601301e-07
9.22822217442e-08
5.8701439322e-08
4.80332218336e-08
4.49389970218e-08
4.40596021774e-08
4.38221879111e-08
4.37361108496e-08
4.3701484881e-08
4.36687000372e-08
4.36330414284e-08
4.35932363289e-08
4.3521283803e-08
4.34708038482e-08
4.34144022427e-08
4.33518777733e-08
4.32833969663e-08
4.32093605354e-08
4.3128438502e-08
4.30404081616e-08
4.29450934985e-08
4.28423847656e-08
4.27329794117e-08
4.26168402694e-08
4.24935371673e-08
4.23633426485e-08
4.22266952432e-08
4.20848111218e-08
4.19381505496e-08
4.17873232375e-08
4.16333834786e-08
4.14780339267e-08
4.13236079507e-08
4.11699141024e-08
4.10185322078e-08
4.08710361849e-08
4.07297062488e-08
4.05955577834e-08
4.0469903735e-08
4.03542043054e-08
4.02498434047e-08
4.01580966897e-08
4.00810530166e-08
4.00183266719e-08
3.99704848162e-08
3.99379548435e-08
3.99114101298e-08
0.232918
0.232918
0.232918
0.232918
0.232918
0.232918
0.232918
0.232918
0.232918
0.232918
0.232918
0.232918
0.232918
0.232918
0.232918
0.232918
0.232918
0.232918
0.232918
0.232918
0.232917597662
0.0955860081058
7.85932800269e-06
1.59133103249e-07
7.75560292203e-08
5.44264520122e-08
4.72812377563e-08
4.52634980988e-08
4.46549525938e-08
4.44630303357e-08
4.4345732933e-08
4.42720757185e-08
4.42019843884e-08
4.41320610793e-08
4.40601943824e-08
4.39584522688e-08
4.38803442288e-08
4.37983890663e-08
4.37124582507e-08
4.36215592926e-08
4.35252046435e-08
4.34229967923e-08
4.33146047945e-08
4.32015408871e-08
4.30819773188e-08
4.29557774102e-08
4.28230026772e-08
4.26839845871e-08
4.25402090578e-08
4.23908405708e-08
4.22365188767e-08
4.20780183632e-08
4.1916959414e-08
4.17539293729e-08
4.15899187723e-08
4.14263564055e-08
4.12657740842e-08
4.11094178374e-08
4.09576722951e-08
4.08121766278e-08
4.06744744416e-08
4.05467066003e-08
4.04296015586e-08
4.03242480774e-08
4.0231721205e-08
4.01530316504e-08
4.00889782505e-08
4.00401247548e-08
4.00068272076e-08
3.99805246067e-08
0.232918
0.232918
0.232918
0.232918
0.232918
0.232918
0.232918
0.232918
0.232918
0.232918
0.232918
0.232918
0.232918
0.232918
0.232918
0.232918
0.232918
0.232918
0.232918
0.232918
0.232911639914
0.00018584896682
1.01276356849e-06
1.22250719272e-07
6.87809987563e-08
5.23904492968e-08
4.75247229039e-08
4.61283561067e-08
4.56540200559e-08
4.54497614879e-08
4.53179286463e-08
4.51970989664e-08
4.5078408615e-08
4.49600113429e-08
4.48420308334e-08
4.47229570089e-08
4.46021962148e-08
4.44792605295e-08
4.43278490293e-08
4.42008751939e-08
4.40699533944e-08
4.39347062363e-08
4.3795109365e-08
4.36510675721e-08
4.35017865564e-08
4.33471921853e-08
4.31875860706e-08
4.30248597093e-08
4.28573741746e-08
4.26856076054e-08
4.25104205465e-08
4.23337988735e-08
4.21551476604e-08
4.19755816166e-08
4.17967082332e-08
4.16205808574e-08
4.14475631923e-08
4.12788594893e-08
4.11160086668e-08
4.09624281586e-08
4.08180332445e-08
4.06839324476e-08
4.05610905428e-08
4.04764720846e-08
4.03798464851e-08
4.02981860907e-08
4.02318013868e-08
4.01812005916e-08
4.01467627551e-08
4.00948381377e-08
0.232918
0.232918
0.232918
0.232918
0.232918
0.232918
0.232918
0.232918
0.232918
0.232918
0.232918
0.232918
0.232918
0.232918
0.232918
0.232918
0.232918
0.232918
0.232918
0.232918
0.230506937525
3.33243074439e-05
3.14016655982e-07
1.020866763e-07
6.38745537041e-08
5.19320132921e-08
4.85177912245e-08
4.74884301522e-08
4.70542488752e-08
4.68031530903e-08
4.66095628056e-08
4.6424891679e-08
4.62438603434e-08
4.60662978582e-08
4.58902053898e-08
4.57149422657e-08
4.55418425098e-08
4.53692494289e-08
4.51956344553e-08
4.50205789647e-08
4.48443230383e-08
4.46654502101e-08
4.44835399656e-08
4.42994905169e-08
4.41132086771e-08
4.39232118618e-08
4.37295229062e-08
4.35333158984e-08
4.33340781055e-08
4.31321495156e-08
4.29290810692e-08
4.27265681274e-08
4.25236023114e-08
4.23213413262e-08
4.2122597948e-08
4.19274785627e-08
4.17370672501e-08
4.15526920298e-08
4.13766849555e-08
4.12094028322e-08
4.10523810071e-08
4.09070372255e-08
4.07754975084e-08
4.06583954392e-08
4.05559678023e-08
4.04690560494e-08
4.03983685235e-08
4.03443554842e-08
4.03072966218e-08
4.02796477532e-08
0.232918
0.232918
0.232918
0.232918
0.232918
0.232918
0.232918
0.232918
0.232918
0.232918
0.232918
0.232918
0.232918
0.232918
0.232918
0.232918
0.232918
0.232918
0.232918
0.232917870407
0.178886509684
1.40593354282e-05
2.02974382408e-07
8.93107100348e-08
6.1161309983e-08
5.25131514571e-08
5.00379882511e-08
4.92226448309e-08
4.87890410673e-08
4.84643157766e-08
4.8190799671e-08
4.79281246938e-08
4.76714856366e-08
4.74223196291e-08
4.71781900639e-08
4.69373675689e-08
4.67014778372e-08
4.6467419769e-08
4.62347291971e-08
4.60036545143e-08
4.57724710227e-08
4.55413073254e-08
4.53115242661e-08
4.5080258066e-08
4.48474344797e-08
4.46137848916e-08
4.43782710582e-08
4.41413820912e-08
4.39059171246e-08
4.3669566562e-08
4.34330833168e-08
4.31984168828e-08
4.29652908169e-08
4.27347281262e-08
4.25104367464e-08
4.22914989936e-08
4.20789791371e-08
4.18753154888e-08
4.16816291939e-08
4.14984236463e-08
4.13270154993e-08
4.1169098483e-08
4.1051735312e-08
4.09238484014e-08
4.08123268729e-08
4.07178147962e-08
4.06409315416e-08
4.05821375354e-08
4.05416582791e-08
4.0512917515e-08
0.232918
0.232918
0.232918
0.232918
0.232918
0.232918
0.232918
0.232918
0.232918
0.232918
0.232918
0.232918
0.232918
0.232918
0.232918
0.232918
0.232918
0.232918
0.232918
0.232917435702
0.0558171440802
6.2419141599e-06
1.55629168756e-07
8.12329252742e-08
6.00438686317e-08
5.38202356416e-08
5.20073914203e-08
5.12736998588e-08
5.08090211923e-08
5.04258927003e-08
5.00333255689e-08
4.96817087448e-08
4.93405986117e-08
4.90072224324e-08
4.86844913122e-08
4.83682681317e-08
4.80582314614e-08
4.77531500025e-08
4.7452661211e-08
4.71579473607e-08
4.68652956392e-08
4.65763624396e-08
4.62890054436e-08
4.60026198853e-08
4.57177500072e-08
4.54330580757e-08
4.51508258025e-08
4.48702098959e-08
4.46175736468e-08
4.43400108802e-08
4.40644831785e-08
4.37921867884e-08
4.35262647023e-08
4.32649163118e-08
4.30100884589e-08
4.276372918e-08
4.25257513493e-08
4.22978406611e-08
4.20820335013e-08
4.18786536216e-08
4.16890164133e-08
4.15156174302e-08
4.13591586817e-08
4.12197489393e-08
4.1098274513e-08
4.09954170396e-08
4.09117537338e-08
4.08478353492e-08
4.08037839369e-08
4.0772884175e-08
0.232918
0.232918
0.232918
0.232918
0.232918
0.232918
0.232918
0.232918
0.232918
0.232918
0.232918
0.232918
0.232918
0.232918
0.232918
0.232918
0.232918
0.232918
0.232918
0.232910236295
0.000154757175682
9.96336181317e-07
1.28018997037e-07
7.57666463875e-08
6.01321318595e-08
5.57038011906e-08
5.43184960981e-08
5.361971265e-08
5.30764959379e-08
5.25946761501e-08
5.21330183486e-08
5.16848687413e-08
5.12493539725e-08
5.08267225056e-08
5.04159815487e-08
5.00161593155e-08
4.96251139931e-08
4.92424333965e-08
4.88662729642e-08
4.84989132794e-08
4.81373080693e-08
4.77807790833e-08
4.7428254526e-08
4.70807329935e-08
4.67381166238e-08
4.63986212502e-08
4.60638378421e-08
4.57316530301e-08
4.54039212474e-08
4.50797022327e-08
4.47618522445e-08
4.44504261839e-08
4.4145012119e-08
4.3847792468e-08
4.35585518528e-08
4.32804403309e-08
4.30143099233e-08
4.27869643211e-08
4.25467237991e-08
4.23223363266e-08
4.21137243878e-08
4.1922178289e-08
4.17502303116e-08
4.15972556997e-08
4.14641091469e-08
4.13514556695e-08
4.12598038888e-08
4.1189537847e-08
4.11410503244e-08
4.11079280951e-08
0.232918
0.232918
0.232918
0.232918
0.232918
0.232918
0.232918
0.232918
0.232918
0.232918
0.232918
0.232918
0.232918
0.232918
0.232918
0.232918
0.232918
0.232918
0.232918
0.230455712852
3.43129017142e-05
3.40112668525e-07
1.1102761988e-07
7.25782790441e-08
6.12527658677e-08
5.81386464747e-08
5.7004024884e-08
5.62364944427e-08
5.56109656279e-08
5.50113110363e-08
5.44336158083e-08
5.38755042732e-08
5.33360487998e-08
5.28117147765e-08
5.23016859877e-08
5.18087101264e-08
5.13275808675e-08
5.08574016016e-08
5.0400731525e-08
4.99532839542e-08
4.95167517651e-08
4.90871414291e-08
4.8665206441e-08
4.82503456369e-08
4.78439675373e-08
4.74431497839e-08
4.70786589537e-08
4.66909445133e-08
4.63098790419e-08
4.59357886843e-08
4.55714798945e-08
4.52146082416e-08
4.48674980526e-08
4.45296537975e-08
4.4205576711e-08
4.38936388315e-08
4.35956565533e-08
4.33133854087e-08
4.30466770576e-08
4.27976076165e-08
4.25670665512e-08
4.2355732321e-08
4.21650314815e-08
4.20258508923e-08
4.18799260924e-08
4.17566775682e-08
4.1656442665e-08
4.15795049777e-08
4.15259458904e-08
4.14899447785e-08
0.232918
0.232918
0.232918
0.232918
0.232918
0.232918
0.232918
0.232918
0.232918
0.232918
0.232918
0.232918
0.232918
0.232918
0.232918
0.232918
0.232918
0.232918
0.232917862669
0.178279927796
1.45891085806e-05
2.18864168967e-07
9.92262860293e-08
7.1371188126e-08
6.33218035705e-08
6.10784811735e-08
6.00491195496e-08
5.91893876114e-08
5.84197516296e-08
5.76815277127e-08
5.69706480096e-08
5.62841154697e-08
5.56235777952e-08
5.49845639118e-08
5.43650212053e-08
5.37675962752e-08
5.31882595199e-08
5.26242606646e-08
5.20743293783e-08
5.15705687242e-08
5.10493235103e-08
5.05412805601e-08
5.00433762601e-08
4.95547834923e-08
4.90791675148e-08
4.86122113963e-08
4.81547318688e-08
4.77069629115e-08
4.72703899616e-08
4.68442250136e-08
4.64285851144e-08
4.60525803316e-08
4.56608127431e-08
4.52819894006e-08
4.49168777967e-08
4.45677856003e-08
4.42364217782e-08
4.3921949013e-08
4.36278758698e-08
4.3353021023e-08
4.30989989871e-08
4.2867436828e-08
4.26584517488e-08
4.247299152e-08
4.23130488785e-08
4.21784855007e-08
4.20690195137e-08
4.19849138509e-08
4.19262153509e-08
4.18876747355e-08
0.232918
0.232918
0.232918
0.232918
0.232918
0.232918
0.232918
0.232918
0.232918
0.232918
0.232918
0.232918
0.232918
0.232918
0.232918
0.232918
0.232918
0.232918
0.232917374272
0.0460762760987
6.30486856826e-06
1.66887031425e-07
9.16011227042e-08
7.1596732282e-08
6.61561599359e-08
6.44879715897e-08
6.34119642779e-08
6.24246825624e-08
6.14898756495e-08
6.0591365649e-08
5.97286311305e-08
5.89007132829e-08
5.8103307538e-08
5.7369171018e-08
5.66305821459e-08
5.59155064319e-08
5.52252788586e-08
5.45574630594e-08
5.3909339193e-08
5.32789644427e-08
5.26676331384e-08
5.20722046578e-08
5.14909748673e-08
5.09266899884e-08
5.04052264691e-08
4.98680453427e-08
4.93445339205e-08
4.88331235809e-08
4.83346553189e-08
4.7850237989e-08
4.73805164529e-08
4.69262858369e-08
4.64863907484e-08
4.60629994702e-08
4.56857113563e-08
4.52995392017e-08
4.49314854335e-08
4.458432196e-08
4.42579645451e-08
4.39554033865e-08
4.36774933029e-08
4.34236183378e-08
4.31959664934e-08
4.29947950633e-08
4.28200935997e-08
4.26724590273e-08
4.25523569872e-08
4.2460376256e-08
4.23960294152e-08
4.23544850269e-08
0.232918
0.232918
0.232918
0.232918
0.232918
0.232918
0.232918
0.232918
0.232918
0.232918
0.232918
0.232918
0.232918
0.232918
0.232918
0.232918
0.232918
0.232918
0.232865353394
0.000102888302366
8.73967615627e-07
1.37155530009e-07
8.700828377e-08
7.3092842187e-08
6.95690246206e-08
6.82323791211e-08
6.70503604074e-08
6.58827496952e-08
6.47746277181e-08
6.3706920741e-08
6.27167069279e-08
6.17344779449e-08
6.07927710807e-08
5.98858224876e-08
5.90141337196e-08
5.81741267738e-08
5.73639942581e-08
5.6583174269e-08
5.58592823036e-08
5.51283801781e-08
5.4418320843e-08
5.37305010408e-08
5.3062487403e-08
5.24115982175e-08
5.17823571675e-08
5.11702277703e-08
5.06039512012e-08
5.00255754682e-08
4.94646295061e-08
4.89197667528e-08
4.83917243276e-08
4.78832548016e-08
4.73931851912e-08
4.69244438921e-08
4.6474799472e-08
4.6046332655e-08
4.56706328567e-08
4.52897376661e-08
4.49328038138e-08
4.46026774528e-08
4.42981552777e-08
4.40212976852e-08
4.37723491692e-08
4.35518316672e-08
4.33612458382e-08
4.32014035413e-08
4.30712451106e-08
4.29709659281e-08
4.29005558324e-08
4.28556626089e-08
0.232918
0.232918
0.232918
0.232918
0.232918
0.232918
0.232918
0.232918
0.232918
0.232918
0.232918
0.232918
0.232918
0.232918
0.232918
0.232918
0.232918
0.232918
0.221670025935
2.58852089593e-05
3.11736234638e-07
1.19029088237e-07
8.5082940313e-08
7.5890723663e-08
7.36539065001e-08
7.23457365015e-08
7.09764971973e-08
6.96281934667e-08
6.83179714149e-08
6.70616160288e-08
6.58588418574e-08
6.47091943662e-08
6.36048005741e-08
6.25490770417e-08
6.15661749961e-08
6.05923482375e-08
5.96551377e-08
5.874961599e-08
5.78793346623e-08
5.70396020539e-08
5.62595986278e-08
5.54721021272e-08
5.47105914256e-08
5.39738712318e-08
5.32592830124e-08
5.25649303301e-08
5.18950532789e-08
5.12461847646e-08
5.06493478667e-08
5.00397716699e-08
4.94541731158e-08
4.88900947302e-08
4.83482582822e-08
4.78291162693e-08
4.73333794865e-08
4.68643661815e-08
4.64512982942e-08
4.60344906774e-08
4.56455851724e-08
4.52854456249e-08
4.4954092901e-08
4.46531590244e-08
4.43824715169e-08
4.41441468096e-08
4.39386494013e-08
4.37649954137e-08
4.36234835868e-08
4.35142704291e-08
4.34373969008e-08
4.33893940058e-08
0.232918
0.232918
0.232918
0.232918
0.232918
0.232918
0.232918
0.232918
0.232918
0.232918
0.232918
0.232918
0.232918
0.232918
0.232918
0.232918
0.232918
0.232917643522
0.11649692089
1.0307316159e-05
2.05970619704e-07
1.08188777317e-07
8.5465225334e-08
7.99264713323e-08
7.82735748987e-08
7.68115453554e-08
7.51904881084e-08
7.35891203152e-08
7.205072607e-08
7.05791510992e-08
6.91788641647e-08
6.78778220347e-08
6.66018208581e-08
6.53793750518e-08
6.4211881118e-08
6.30907725213e-08
6.20500061256e-08
6.10163849083e-08
6.00232263532e-08
5.90644732245e-08
5.81421701081e-08
5.72507883215e-08
5.64260772602e-08
5.55963049739e-08
5.47931509903e-08
5.40163904427e-08
5.32674182078e-08
5.25440043468e-08
5.18772848595e-08
5.12039040006e-08
5.05565260455e-08
4.99345646114e-08
4.93401371786e-08
4.87709367536e-08
4.82279856071e-08
4.7716291785e-08
4.72658675522e-08
4.68111393329e-08
4.6388486236e-08
4.59978991437e-08
4.56399736305e-08
4.53154212898e-08
4.50237315913e-08
4.47668808685e-08
4.45441169502e-08
4.43558186105e-08
4.42023588947e-08
4.40849152034e-08
4.40018252204e-08
4.39498439232e-08
0.232918
0.232918
0.232918
0.232918
0.232918
0.232918
0.232918
0.232918
0.232918
0.232918
0.232918
0.232918
0.232918
0.232918
0.232918
0.232918
0.232918
0.232912098349
0.000265712907383
2.35114555037e-06
1.59204671667e-07
1.02156276529e-07
8.78293780352e-08
8.47234912865e-08
8.32834863953e-08
8.15138163151e-08
7.96220254527e-08
7.77522850311e-08
7.59665537613e-08
7.43046760266e-08
7.26876837807e-08
7.11524012198e-08
6.96858288131e-08
6.83271220714e-08
6.69919483829e-08
6.57159681468e-08
6.44956160029e-08
6.33237997393e-08
6.22352749953e-08
6.11568906508e-08
6.01198623005e-08
5.91196556399e-08
5.81574020033e-08
5.72659942312e-08
5.63708599291e-08
5.55085467516e-08
5.46786616506e-08
5.38780885561e-08
5.3106582923e-08
5.24019140289e-08
5.16894654178e-08
5.10090910432e-08
5.03591256383e-08
4.97390154177e-08
4.91490624115e-08
4.85931280723e-08
4.8103089575e-08
4.76134425287e-08
4.71575088252e-08
4.67364733318e-08
4.63503215234e-08
4.59999190392e-08
4.56858176165e-08
4.54107008609e-08
4.5171974266e-08
4.49700629688e-08
4.48060504478e-08
4.46794070684e-08
4.45894314444e-08
4.45332725347e-08
0.232918
0.232918
0.232918
0.232918
0.232918
0.232918
0.232918
0.232918
0.232918
0.232918
0.232918
0.232918
0.232918
0.232918
0.232918
0.232918
0.232918
0.225325801672
2.96770228333e-05
3.70197378061e-07
1.35043073148e-07
1.00110713095e-07
9.19242944521e-08
9.0191262052e-08
8.85773822079e-08
8.64324371569e-08
8.42211658153e-08
8.21103421412e-08
8.00625723558e-08
7.81198164724e-08
7.62797410016e-08
7.456801962e-08
7.29061314687e-08
7.13231185617e-08
6.98525993397e-08
6.84144642239e-08
6.70390126978e-08
6.57254838804e-08
6.45020672999e-08
6.32969595802e-08
6.21392505789e-08
6.10264588016e-08
5.99591090103e-08
5.89682530224e-08
5.79785413426e-08
5.70279883565e-08
5.61149719006e-08
5.52375761268e-08
5.44284191455e-08
5.36198185372e-08
5.28453577115e-08
5.2104420426e-08
5.13959568492e-08
5.07255213424e-08
5.00901025468e-08
4.95238639798e-08
4.89595617347e-08
4.84314887761e-08
4.79399497951e-08
4.74887504851e-08
4.70753427863e-08
4.67017470294e-08
4.6366404219e-08
4.60722881007e-08
4.58170415351e-08
4.56338053182e-08
4.54575695912e-08
4.53214731147e-08
4.52243545309e-08
4.51638929217e-08
0.232918
0.232918
0.232918
0.232918
0.232918
0.232918
0.232918
0.232918
0.232918
0.232918
0.232918
0.232918
0.232918
0.232918
0.232918
0.232918
0.232917570901
0.101165494521
1.01080502809e-05
2.2044657331e-07
1.22344512531e-07
1.01591989944e-07
9.75984044742e-08
9.62516736059e-08
9.41408304823e-08
9.16085469801e-08
8.90352932321e-08
8.65731045324e-08
8.42474719575e-08
8.20857516801e-08
8.00014822101e-08
7.80297083213e-08
7.61964914079e-08
7.44211284046e-08
7.27287506858e-08
7.11613121364e-08
6.96262804391e-08
6.81632192153e-08
6.6763683784e-08
6.54648274368e-08
6.41842748745e-08
6.29552323047e-08
6.17793582037e-08
6.06870739754e-08
5.96037602697e-08
5.85640591303e-08
5.75636398836e-08
5.66067473862e-08
5.57270320801e-08
5.48467432078e-08
5.40075067039e-08
5.32075266582e-08
5.24462409526e-08
5.17235858115e-08
5.1074302936e-08
5.04298751442e-08
4.98257856036e-08
4.92607386384e-08
4.87355242174e-08
4.82534936297e-08
4.78123871826e-08
4.74145120385e-08
4.70933185203e-08
4.67790028897e-08
4.65074228264e-08
4.62774761512e-08
4.60895305648e-08
4.59441779683e-08
4.58399380863e-08
4.57749117449e-08
0.232918
0.232918
0.232918
0.232918
0.232918
0.232918
0.232918
0.232918
0.232918
0.232918
0.232918
0.232918
0.232918
0.232918
0.232918
0.232918
0.232841264939
0.000106078937821
1.39736200387e-06
1.68013346479e-07
1.16818994093e-07
1.05844594307e-07
1.04180640033e-07
1.02552510907e-07
9.98526121993e-08
9.68572771234e-08
9.39195032675e-08
9.11787566707e-08
8.85528310976e-08
8.60804824687e-08
8.37853997896e-08
8.15768512099e-08
7.95304227918e-08
7.75514136127e-08
7.56718570861e-08
7.3929463458e-08
7.22306935214e-08
7.06157541462e-08
6.90708906183e-08
6.76397878432e-08
6.62341092734e-08
6.48893644803e-08
6.36006076133e-08
6.24089243543e-08
6.12265881335e-08
6.00951055414e-08
5.90126651118e-08
5.801479452e-08
5.70235910689e-08
5.60740318884e-08
5.51708941392e-08
5.43109039076e-08
5.35301144954e-08
5.2755828826e-08
5.20249460355e-08
5.13370372763e-08
5.06923495548e-08
5.00916937337e-08
4.95357533304e-08
4.9059570765e-08
4.85922094552e-08
4.81684987974e-08
4.77895513884e-08
4.74546141487e-08
4.71671171154e-08
4.69236092622e-08
4.67240969439e-08
4.65686091668e-08
4.64571199226e-08
4.63872941362e-08
0.232918
0.232918
0.232918
0.232918
0.232918
0.232918
0.232918
0.232918
0.232918
0.232918
0.232918
0.232918
0.232918
0.232918
0.232918
0.232917879293
0.189902045882
1.88616049272e-05
3.14042892925e-07
1.44453829685e-07
1.17025432102e-07
1.12311901751e-07
1.11375887254e-07
1.0896744446e-07
1.05621065519e-07
1.02167571748e-07
9.88974350662e-08
9.57822852867e-08
9.28937830957e-08
9.01383771545e-08
8.7584792089e-08
8.51373480632e-08
8.2826225461e-08
8.06823282297e-08
7.86102564562e-08
7.66499454967e-08
7.48251664638e-08
7.30539439514e-08
7.13675637026e-08
6.98019977311e-08
6.82665808261e-08
6.68044278296e-08
6.54478589594e-08
6.41096617346e-08
6.28330414687e-08
6.1612360662e-08
6.04842082811e-08
5.93696060926e-08
5.8305514413e-08
5.72896339789e-08
5.63213812084e-08
5.54422004023e-08
5.45705757762e-08
5.37460322537e-08
5.29684575997e-08
5.22380606432e-08
5.15532069327e-08
5.0956492406e-08
5.03668288067e-08
4.98255756826e-08
4.93307362112e-08
4.88826295775e-08
4.84835422681e-08
4.81321394803e-08
4.78275323725e-08
4.75708165168e-08
4.73982102389e-08
4.7233186191e-08
4.71135237503e-08
4.70379309177e-08
0.232918
0.232918
0.232918
0.232918
0.232918
0.232918
0.232918
0.232918
0.232918
0.232918
0.232918
0.232918
0.232918
0.232918
0.232918
0.232914834521
0.0014579012071
5.19267008081e-06
2.04371502975e-07
1.3487017925e-07
1.21617664273e-07
1.20350335112e-07
1.18811183034e-07
1.15436907336e-07
1.11462483382e-07
1.07543060901e-07
1.03891057575e-07
1.00425420669e-07
9.722239532e-08
9.41782458164e-08
9.13582272869e-08
8.86668997992e-08
8.61267049701e-08
8.37769848312e-08
8.15105954129e-08
7.9412663637e-08
7.73805751263e-08
7.54522085121e-08
7.36637153556e-08
7.192164163e-08
7.02633728359e-08
6.87261951672e-08
6.72164219082e-08
6.57774236416e-08
6.44061290899e-08
6.31373459278e-08
6.18858747763e-08
6.06944172527e-08
5.95586924464e-08
5.85181854496e-08
5.74895353521e-08
5.65132844992e-08
5.55888966298e-08
5.47141390157e-08
5.39325190813e-08
5.31606686715e-08
5.24391977266e-08
5.17685481293e-08
5.11490054956e-08
5.05793573345e-08
5.00599031481e-08
4.96305106137e-08
4.92109157956e-08
4.88417484832e-08
4.85218935011e-08
4.82504601069e-08
4.80286831217e-08
4.7854605896e-08
4.77276159183e-08
4.76467224611e-08
0.232918
0.232918
0.232918
0.232918
0.232918
0.232918
0.232918
0.232918
0.232918
0.232918
0.232918
0.232918
0.232918
0.232918
0.232917980011
0.217681994282
2.79682889378e-05
4.3578438855e-07
1.65925760524e-07
1.33726634047e-07
1.2926004328e-07
1.28843744456e-07
1.26071394721e-07
1.217263258e-07
1.17158157252e-07
1.1284527327e-07
1.08761411914e-07
1.04996451578e-07
1.01433116379e-07
9.8140824975e-08
9.50579957199e-08
9.21203435469e-08
8.93542504298e-08
8.67967583322e-08
8.43373111312e-08
8.20610763852e-08
7.98653224439e-08
7.77836849079e-08
7.58532800821e-08
7.39789454218e-08
7.21982129471e-08
7.05452243715e-08
6.89304732163e-08
6.73909978578e-08
6.59709152678e-08
6.45747773775e-08
6.32439068574e-08
6.19780704116e-08
6.08147385669e-08
5.96684908954e-08
5.85803992495e-08
5.75494301009e-08
5.66173351439e-08
5.5697344813e-08
5.48297260147e-08
5.40184914948e-08
5.32619367231e-08
5.25590005192e-08
5.19519473084e-08
5.13558846907e-08
5.08123587888e-08
5.03211663177e-08
4.98833244238e-08
4.94967394913e-08
4.91622196753e-08
4.88787958015e-08
4.86452237833e-08
4.85023311641e-08
4.83675581458e-08
4.82810238794e-08
0.232918
0.232918
0.232918
0.232918
0.232918
0.232918
0.232918
0.232918
0.232918
0.232918
0.232918
0.232918
0.232918
0.232918
0.232917028253
0.0129090259428
7.1370220261e-06
2.34032168707e-07
1.52436454859e-07
1.39304443352e-07
1.38937144415e-07
1.374111652e-07
1.33050316133e-07
1.27849453914e-07
1.22781227348e-07
1.18027921731e-07
1.1355603859e-07
1.09441209354e-07
1.05558351203e-07
1.01980257937e-07
9.86350160477e-08
9.54517708047e-08
9.25117326792e-08
8.97029765734e-08
8.70542159161e-08
8.46072101657e-08
8.22460516079e-08
8.00630876113e-08
7.7950624139e-08
7.59479037151e-08
7.40900978588e-08
7.22843612239e-08
7.05671039391e-08
6.89795014735e-08
6.74248307088e-08
6.59468270601e-08
6.45831160923e-08
6.32450515403e-08
6.19738841795e-08
6.07670778007e-08
5.96668587934e-08
5.85831627345e-08
5.75603123786e-08
5.65966358698e-08
5.5691610843e-08
5.48883891503e-08
5.40981601352e-08
5.33645275254e-08
5.26871308115e-08
5.20653429547e-08
5.14996412959e-08
5.10340879717e-08
5.05772103428e-08
5.01748017371e-08
4.9825774495e-08
4.9528818129e-08
4.92852376867e-08
4.90924224662e-08
4.89497101288e-08
4.88566089227e-08
0.232918
0.232918
0.232918
0.232918
0.232918
0.232918
0.232918
0.232918
0.232918
0.232918
0.232918
0.232918
0.232918
0.232917973791
0.217569101674
2.88955348065e-05
4.96149772559e-07
1.84008993861e-07
1.51707929257e-07
1.48753230355e-07
1.48865608913e-07
1.45292739079e-07
1.396654141e-07
1.33733666793e-07
1.28166987612e-07
1.2299355439e-07
1.18142521269e-07
1.13686107133e-07
1.09544986108e-07
1.0563889768e-07
1.02035085645e-07
9.86177937652e-08
9.54664296311e-08
9.24556156456e-08
8.96787027104e-08
8.70111702883e-08
8.45497591233e-08
8.21723951376e-08
7.99270397368e-08
7.78505428174e-08
7.58355932533e-08
7.39710852482e-08
7.21550113062e-08
7.04308762622e-08
6.87921841068e-08
6.72826583106e-08
6.58009842537e-08
6.4396419089e-08
6.31128694038e-08
6.18485160569e-08
6.06511075504e-08
5.95203741382e-08
5.84999394215e-08
5.74953634668e-08
5.65524614296e-08
5.56708433236e-08
5.48493193558e-08
5.40874765557e-08
5.34315731186e-08
5.27868987904e-08
5.21995709265e-08
5.16718704748e-08
5.11994394873e-08
5.07822285751e-08
5.04196917967e-08
5.01122913112e-08
4.99017936119e-08
4.96992719756e-08
4.95483631675e-08
4.94489020198e-08
0.232918
0.232918
0.232918
0.232918
0.232918
0.232918
0.232918
0.232918
0.232918
0.232918
0.232918
0.232918
0.232918
0.2329144543
0.00192444356669
6.46495914249e-06
2.4878683024e-07
1.69678053518e-07
1.59385648385e-07
1.60341026701e-07
1.58300642087e-07
1.52551934308e-07
1.45795020592e-07
1.39292255314e-07
1.33252309053e-07
1.27669618076e-07
1.22452957593e-07
1.1767499862e-07
1.13237111034e-07
1.09055704717e-07
1.05211186735e-07
1.01623405765e-07
9.82149595189e-08
9.50725750235e-08
9.20680455779e-08
8.92999629439e-08
8.66401426379e-08
8.41275299506e-08
8.18084407985e-08
7.95672976775e-08
7.74976160448e-08
7.5486665099e-08
7.358080879e-08
7.18214586513e-08
7.0105070801e-08
6.84760059962e-08
6.69814093304e-08
6.55141200529e-08
6.41246769716e-08
6.28085511229e-08
6.16144954957e-08
6.04394012572e-08
5.93319712601e-08
5.82909092534e-08
5.73634400727e-08
5.64507488996e-08
5.56011644154e-08
5.48143947953e-08
5.40903861099e-08
5.34256351304e-08
5.28688616834e-08
5.23212238869e-08
5.18331689006e-08
5.14011457854e-08
5.10271313867e-08
5.07077462892e-08
5.04427529742e-08
5.02321861563e-08
5.00738523614e-08
4.99671441885e-08
0.232918
0.232918
0.232918
0.232918
0.232918
0.232918
0.232918
0.232918
0.232918
0.232918
0.232918
0.232918
0.232917841905
0.186778402555
2.14501579771e-05
4.39982825094e-07
1.97820980894e-07
1.71565205756e-07
1.71477373442e-07
1.71561996378e-07
1.66437454534e-07
1.59015908973e-07
1.51444620889e-07
1.44413775404e-07
1.3793848764e-07
1.31975056569e-07
1.26475082767e-07
1.21332383535e-07
1.16619928632e-07
1.12243681134e-07
1.08114064402e-07
1.04322349902e-07
1.00778215611e-07
9.74075848569e-08
9.43006446936e-08
9.13305201698e-08
8.8589731025e-08
8.59557607287e-08
8.34715802546e-08
8.1179217032e-08
7.8960443616e-08
7.69159032145e-08
7.49252832398e-08
7.30394965985e-08
7.13057643361e-08
6.96103728105e-08
6.80047379296e-08
6.64830047629e-08
6.50956919575e-08
6.37324083685e-08