/*--------------------------------*- C++ -*----------------------------------*\
| =========                 |                                                 |
| \\      /  F ield         | foam-extend: Open Source CFD                    |
|  \\    /   O peration     | Version:     4.1                                |
|   \\  /    A nd           | Web:         http://www.foam-extend.org         |
|    \\/     M anipulation  |                                                 |
\*---------------------------------------------------------------------------*/
FoamFile
{
    version     2.0;
    format      ascii;
    class       volScalarField;
    location    "0.001";
    object      O2Plus;
}
// * * * * * * * * * * * * * * * * * * * * * * * * * * * * * * * * * * * * * //

dimensions      [0 0 0 0 0 0 0];

internalField   nonuniform List<scalar> 
8400
(
2.93247975805e-108
2.93247975807e-108
2.93247975808e-108
2.9324797581e-108
2.93247975811e-108
2.93247975812e-108
2.93247975814e-108
2.93247975815e-108
2.93247975816e-108
2.93247975818e-108
2.93247975819e-108
2.9324797582e-108
2.93247975822e-108
2.93247975823e-108
2.93247975824e-108
2.93247975827e-108
2.93247975943e-108
2.93247982462e-108
2.9324835228e-108
2.932684785e-108
2.94374730694e-108
3.08617415206e-108
7.12058751968e-22
2.56608496612e-08
1.74865245027e-07
2.204290528e-07
2.35098564888e-07
2.45011437411e-07
2.54014558835e-07
2.5858415973e-07
2.59664027182e-07
2.59510359673e-07
2.59011987651e-07
2.58475004296e-07
2.57966689043e-07
2.57496528892e-07
2.57060512305e-07
2.56651148061e-07
2.56263632488e-07
2.55892672452e-07
2.55533192854e-07
2.55180952682e-07
2.54832083848e-07
2.54483154757e-07
2.54131838735e-07
2.53774687821e-07
2.53409235054e-07
2.5303349473e-07
2.52646842966e-07
2.52322338816e-07
2.51909111103e-07
2.51482489918e-07
2.51043652053e-07
2.50594313812e-07
2.5013670327e-07
2.49673641619e-07
2.492086379e-07
2.48745996147e-07
2.48290400565e-07
2.47846957435e-07
2.47419670432e-07
2.47015333389e-07
2.46640155306e-07
2.46299790139e-07
2.45999290936e-07
2.45743223752e-07
2.45535929516e-07
2.45380496589e-07
2.45279601761e-07
2.4535238553e-07
2.93247975328e-108
2.93247975329e-108
2.93247975329e-108
2.9324797533e-108
2.9324797533e-108
2.93247975331e-108
2.93247975331e-108
2.93247975332e-108
2.93247975333e-108
2.93247975333e-108
2.93247975334e-108
2.93247975334e-108
2.93247975335e-108
2.93247975335e-108
2.93247975336e-108
2.93247975345e-108
2.93247975859e-108
2.93248005185e-108
2.93249637224e-108
2.9334041227e-108
2.96068312676e-108
7.65471912439e-43
2.10870273591e-12
7.72232286813e-08
1.98545015329e-07
2.26338487151e-07
2.35968008901e-07
2.45347579786e-07
2.52820584397e-07
2.56147924392e-07
2.57140604458e-07
2.57241841422e-07
2.57194002509e-07
2.57088355517e-07
2.56962730539e-07
2.56824683121e-07
2.56600564915e-07
2.56438999585e-07
2.56267113774e-07
2.56083126116e-07
2.55885944379e-07
2.55674337502e-07
2.55448207248e-07
2.55205259416e-07
2.54944437743e-07
2.54664618802e-07
2.54365020555e-07
2.54044974955e-07
2.53704863138e-07
2.53345174695e-07
2.52966260688e-07
2.52568408211e-07
2.52152875385e-07
2.51723450987e-07
2.51283302818e-07
2.50836511594e-07
2.50388392027e-07
2.49942069548e-07
2.49501963337e-07
2.49073245072e-07
2.48660122465e-07
2.48269987369e-07
2.4790882076e-07
2.47581661772e-07
2.47292687066e-07
2.4704608134e-07
2.4684624762e-07
2.46695966334e-07
2.46597445339e-07
2.4663893506e-07
2.93247975088e-108
2.93247975088e-108
2.93247975089e-108
2.93247975089e-108
2.93247975089e-108
2.9324797509e-108
2.9324797509e-108
2.9324797509e-108
2.93247975091e-108
2.93247975091e-108
2.93247975091e-108
2.93247975092e-108
2.93247975092e-108
2.93247975092e-108
2.93247975093e-108
2.93247975146e-108
2.93247978139e-108
2.93248149261e-108
2.93257557723e-108
2.93784310174e-108
3.02122173225e-108
1.03251011353e-28
8.46971980213e-09
1.52281905171e-07
2.14032057861e-07
2.30012471003e-07
2.38402400472e-07
2.47238677256e-07
2.52977457401e-07
2.55104092013e-07
2.55745978671e-07
2.55970483893e-07
2.56062142047e-07
2.56103329456e-07
2.56038940663e-07
2.56023124727e-07
2.55984141398e-07
2.55921760492e-07
2.55835947063e-07
2.55727452416e-07
2.55595039773e-07
2.55438629279e-07
2.552579514e-07
2.55052695355e-07
2.54822275783e-07
2.54566310367e-07
2.54285341722e-07
2.53979271014e-07
2.53573999392e-07
2.53220511898e-07
2.52845673776e-07
2.52451531134e-07
2.52040467011e-07
2.51615732229e-07
2.51182084637e-07
2.5074304758e-07
2.50302831293e-07
2.49864979714e-07
2.49433612209e-07
2.49014316841e-07
2.48614097971e-07
2.4823882639e-07
2.47893370217e-07
2.47579121631e-07
2.47299618999e-07
2.47061019024e-07
2.46941247793e-07
2.46725787624e-07
2.46629922982e-07
2.46655287507e-07
2.93247974935e-108
2.93247974935e-108
2.93247974935e-108
2.93247974935e-108
2.93247974936e-108
2.93247974936e-108
2.93247974936e-108
2.93247974936e-108
2.93247974937e-108
2.93247974937e-108
2.93247974937e-108
2.93247974937e-108
2.93247974938e-108
2.93247974938e-108
2.93247974941e-108
2.93247975131e-108
2.93247985919e-108
2.9324859804e-108
2.93281946992e-108
2.95092901558e-108
3.16478915966e-108
4.70347854838e-15
4.58004279168e-08
1.87544826699e-07
2.22583145324e-07
2.3338800731e-07
2.4219578681e-07
2.50337595545e-07
2.54424938407e-07
2.55765772968e-07
2.56102076607e-07
2.56231714072e-07
2.5628547155e-07
2.56306179464e-07
2.56301537681e-07
2.56197814062e-07
2.56146525541e-07
2.56073018392e-07
2.55975941627e-07
2.55854865448e-07
2.55709658241e-07
2.55539225565e-07
2.5534329061e-07
2.55121640792e-07
2.54874070937e-07
2.54600397835e-07
2.5430097149e-07
2.53976796128e-07
2.53629075579e-07
2.53259266697e-07
2.52867635847e-07
2.52457029004e-07
2.52030995302e-07
2.51593026829e-07
2.51147248009e-07
2.50698768114e-07
2.50250853538e-07
2.4980812124e-07
2.49375018777e-07
2.48954970699e-07
2.48554484996e-07
2.48179246372e-07
2.4783393782e-07
2.47522475552e-07
2.47248396897e-07
2.47015804372e-07
2.46826855555e-07
2.46683781747e-07
2.46588256554e-07
2.46603801743e-07
2.93247974827e-108
2.93247974827e-108
2.93247974827e-108
2.93247974827e-108
2.93247974828e-108
2.93247974828e-108
2.93247974828e-108
2.93247974828e-108
2.93247974828e-108
2.93247974829e-108
2.93247974829e-108
2.93247974829e-108
2.93247974829e-108
2.9324797483e-108
2.93247974845e-108
2.93247975692e-108
2.93248024255e-108
2.93250718475e-108
2.93401649152e-108
2.96933958996e-108
1.54094625341e-42
1.95208550249e-11
9.95065840357e-08
2.0433196058e-07
2.28147540675e-07
2.3746879194e-07
2.46987514158e-07
2.54090298427e-07
2.56947555051e-07
2.57718991789e-07
2.57783098972e-07
2.57756694084e-07
2.57688553494e-07
2.57602113077e-07
2.57499264943e-07
2.57305466217e-07
2.57168869222e-07
2.57014696501e-07
2.5684036689e-07
2.56645818139e-07
2.56430147029e-07
2.5619257646e-07
2.55932493586e-07
2.55650575508e-07
2.55345499669e-07
2.55017128255e-07
2.54665762677e-07
2.54292127133e-07
2.53897140668e-07
2.53482634189e-07
2.53050476523e-07
2.52603104891e-07
2.52142039381e-07
2.51671947787e-07
2.51196944371e-07
2.50720752628e-07
2.50248393533e-07
2.49785029714e-07
2.49335145201e-07
2.48903559825e-07
2.48494112255e-07
2.48109590143e-07
2.47755978357e-07
2.47438086973e-07
2.47159430329e-07
2.46922790738e-07
2.46730324196e-07
2.46583818517e-07
2.46484837854e-07
2.46491167644e-07
2.93247974747e-108
2.93247974747e-108
2.93247974747e-108
2.93247974747e-108
2.93247974747e-108
2.93247974747e-108
2.93247974747e-108
2.93247974748e-108
2.93247974748e-108
2.93247974748e-108
2.93247974748e-108
2.93247974748e-108
2.93247974748e-108
2.93247974749e-108
2.93247974802e-108
2.93247977821e-108
2.93248150572e-108
2.93257665932e-108
2.93790461853e-108
3.02218868753e-108
1.05623417638e-28
8.60747399941e-09
1.52443268118e-07
2.1497425641e-07
2.32438291314e-07
2.42315398128e-07
2.52262238616e-07
2.58198087413e-07
2.60116636596e-07
2.60444239954e-07
2.60366047672e-07
2.60180003762e-07
2.59965641051e-07
2.59738459066e-07
2.59498462908e-07
2.59247788173e-07
2.5898562049e-07
2.58709977586e-07
2.58345753871e-07
2.58041454516e-07
2.5772182867e-07
2.57385059679e-07
2.57029412156e-07
2.56653800417e-07
2.56259150359e-07
2.55845414163e-07
2.55413001263e-07
2.54963670441e-07
2.5449735099e-07
2.54015403201e-07
2.53519969526e-07
2.53013490368e-07
2.52500000104e-07
2.51982524496e-07
2.51462896904e-07
2.50942925913e-07
2.50429838079e-07
2.49930409648e-07
2.49449786821e-07
2.48991637472e-07
2.48558121549e-07
2.48153256727e-07
2.47783593504e-07
2.47528308228e-07
2.4723908507e-07
2.4699220954e-07
2.46790754438e-07
2.46636475547e-07
2.46530201575e-07
2.46451026115e-07
2.93247974684e-108
2.93247974684e-108
2.93247974685e-108
2.93247974685e-108
2.93247974685e-108
2.93247974685e-108
2.93247974685e-108
2.93247974685e-108
2.93247974685e-108
2.93247974685e-108
2.93247974686e-108
2.93247974686e-108
2.93247974686e-108
2.93247974689e-108
2.93247974832e-108
2.9324798298e-108
2.93248446574e-108
2.9327377364e-108
2.94662604639e-108
3.11740530041e-108
1.68630622495e-18
3.31657053395e-08
1.80783035679e-07
2.22722927653e-07
2.37301086745e-07
2.48336788367e-07
2.58137304663e-07
2.62925622081e-07
2.64074709475e-07
2.64025451377e-07
2.63717619515e-07
2.63341341267e-07
2.62949979181e-07
2.62550014271e-07
2.62145836333e-07
2.61736833917e-07
2.61323214551e-07
2.60902984814e-07
2.60474085036e-07
2.60035046681e-07
2.59582676938e-07
2.5911821912e-07
2.58640845379e-07
2.5815061708e-07
2.57647198121e-07
2.57129722082e-07
2.56598369737e-07
2.56051483981e-07
2.55492083719e-07
2.54922111766e-07
2.54344038644e-07
2.53761313584e-07
2.53175747004e-07
2.52591078152e-07
2.5201030989e-07
2.51436900676e-07
2.50875166207e-07
2.50329769351e-07
2.49804351004e-07
2.49305047934e-07
2.48835589379e-07
2.48399825201e-07
2.48002513009e-07
2.47647400619e-07
2.47337125755e-07
2.47073971805e-07
2.46859741843e-07
2.46695758328e-07
2.46583262454e-07
2.46575610719e-07
2.93247974635e-108
2.93247974635e-108
2.93247974635e-108
2.93247974635e-108
2.93247974635e-108
2.93247974635e-108
2.93247974636e-108
2.93247974636e-108
2.93247974636e-108
2.93247974636e-108
2.93247974636e-108
2.93247974636e-108
2.93247974636e-108
2.93247974643e-108
2.93247975049e-108
2.93247998251e-108
2.93249299915e-108
2.93321647091e-108
2.95826931021e-108
5.06152410679e-43
6.42173068122e-13
6.79619649804e-08
1.96694523086e-07
2.28999309112e-07
2.42900835273e-07
2.55277666622e-07
2.64439350933e-07
2.6813731277e-07
2.6867672283e-07
2.68277169316e-07
2.67724462889e-07
2.6712874768e-07
2.66530103695e-07
2.65935773655e-07
2.65345146141e-07
2.64756593736e-07
2.641682767e-07
2.63579243445e-07
2.62987155332e-07
2.62388433739e-07
2.61784689926e-07
2.61175220003e-07
2.60560118632e-07
2.59937062723e-07
2.59305075597e-07
2.58661826076e-07
2.58010334297e-07
2.57351451803e-07
2.5668778784e-07
2.56019086272e-07
2.55347306144e-07
2.54671774145e-07
2.53998721351e-07
2.5333188627e-07
2.52676754726e-07
2.52035602432e-07
2.51411640467e-07
2.5080880251e-07
2.50231655018e-07
2.49685584083e-07
2.49174778178e-07
2.48702524076e-07
2.48346514784e-07
2.47960966932e-07
2.4762340947e-07
2.47337258653e-07
2.47104250174e-07
2.46925554593e-07
2.468021449e-07
2.46786811831e-07
2.93247974595e-108
2.93247974595e-108
2.93247974595e-108
2.93247974595e-108
2.93247974595e-108
2.93247974595e-108
2.93247974595e-108
2.93247974595e-108
2.93247974595e-108
2.93247974596e-108
2.93247974596e-108
2.93247974596e-108
2.93247974596e-108
2.93247974617e-108
2.93247975778e-108
2.93248041978e-108
2.9325169041e-108
2.93455069383e-108
2.97694878496e-108
2.13549443157e-42
6.36322743603e-11
1.11113146996e-07
2.0866875934e-07
2.35209140495e-07
2.49596605711e-07
2.62908679341e-07
2.71153282483e-07
2.73751484113e-07
2.73782953133e-07
2.7313153156e-07
2.72252000333e-07
2.71427136368e-07
2.7060555224e-07
2.69794950677e-07
2.68997532934e-07
2.68209693911e-07
2.67426722125e-07
2.66648077235e-07
2.65874401617e-07
2.65105102788e-07
2.6433709812e-07
2.63568879088e-07
2.62799470403e-07
2.62027187971e-07
2.61249374604e-07
2.60469111929e-07
2.59688163049e-07
2.58907447119e-07
2.58200263204e-07
2.57416168082e-07
2.56633621444e-07
2.55857028653e-07
2.55090734687e-07
2.54336150455e-07
2.535970704e-07
2.52877162288e-07
2.52180742769e-07
2.51510809581e-07
2.5087052091e-07
2.50266359771e-07
2.49702896954e-07
2.49184599995e-07
2.48714425813e-07
2.48294700611e-07
2.47928302774e-07
2.47617709058e-07
2.47364835696e-07
2.47170328594e-07
2.47035166681e-07
2.47010435031e-07
2.93247974562e-108
2.93247974562e-108
2.93247974562e-108
2.93247974562e-108
2.93247974562e-108
2.93247974562e-108
2.93247974562e-108
2.93247974562e-108
2.93247974562e-108
2.93247974562e-108
2.93247974562e-108
2.93247974562e-108
2.93247974564e-108
2.93247974624e-108
2.93247978065e-108
2.93248173997e-108
2.93258910125e-108
2.93854848784e-108
3.02993561565e-108
1.32119159463e-28
9.88704497071e-09
1.54098596737e-07
2.18459596411e-07
2.41562598169e-07
2.57411106337e-07
2.71043702327e-07
2.78073838784e-07
2.79712599734e-07
2.79241858482e-07
2.78284054351e-07
2.77227977117e-07
2.7616738764e-07
2.75117246446e-07
2.74085583676e-07
2.73071714214e-07
2.72072991081e-07
2.71088189015e-07
2.70111637339e-07
2.69144765087e-07
2.68189656783e-07
2.67243262368e-07
2.66300296213e-07
2.65360937346e-07
2.64427310611e-07
2.63498939777e-07
2.62574389775e-07
2.61653192931e-07
2.60736561029e-07
2.59821631497e-07
2.58913949307e-07
2.5801708959e-07
2.5713288029e-07
2.56262645367e-07
2.55407012799e-07
2.54573329336e-07
2.53766903783e-07
2.52992093322e-07
2.52325384618e-07
2.51619657598e-07
2.5095567132e-07
2.50337933296e-07
2.49770040198e-07
2.4925501062e-07
2.48796018936e-07
2.48395822864e-07
2.48056725141e-07
2.47780389007e-07
2.4756787075e-07
2.47419152633e-07
2.47385731157e-07
2.93247974534e-108
2.93247974534e-108
2.93247974534e-108
2.93247974534e-108
2.93247974534e-108
2.93247974534e-108
2.93247974534e-108
2.93247974534e-108
2.93247974534e-108
2.93247974534e-108
2.93247974534e-108
2.93247974535e-108
2.93247974537e-108
2.93247974691e-108
2.93247983375e-108
2.93248472735e-108
2.93274985351e-108
2.94711958281e-108
3.12304716222e-108
1.73449520036e-18
3.25807227536e-08
1.80868963395e-07
2.27517074724e-07
2.48966752916e-07
2.66403426573e-07
2.79688308004e-07
2.853128205e-07
2.85964682937e-07
2.85079702488e-07
2.83804577961e-07
2.82474807867e-07
2.81158989175e-07
2.79866973351e-07
2.78596122365e-07
2.77348660725e-07
2.76126881609e-07
2.74923733087e-07
2.73737509827e-07
2.72571635946e-07
2.71422830591e-07
2.70287785684e-07
2.69164640358e-07
2.68049388557e-07
2.66946300188e-07
2.65855982107e-07
2.64775114361e-07
2.63780957854e-07
2.62721083773e-07
2.61669405556e-07
2.60632435324e-07
2.59612992919e-07
2.58611349993e-07
2.57627311821e-07
2.56668132888e-07
2.55739160781e-07
2.54842796475e-07
2.53982161105e-07
2.53161023707e-07
2.52383991211e-07
2.51653045408e-07
2.50973386158e-07
2.50349738228e-07
2.49786616056e-07
2.49367482774e-07
2.48931569494e-07
2.48560936362e-07
2.48258230168e-07
2.48024941411e-07
2.47861974214e-07
2.47820264382e-07
2.9324797451e-108
2.9324797451e-108
2.9324797451e-108
2.9324797451e-108
2.9324797451e-108
2.9324797451e-108
2.93247974511e-108
2.93247974511e-108
2.93247974511e-108
2.93247974511e-108
2.93247974511e-108
2.93247974511e-108
2.93247974519e-108
2.93247974964e-108
2.93248000211e-108
2.93249402023e-108
2.93326495688e-108
2.95936422789e-108
5.35523641074e-43
6.75939962978e-13
6.66826384985e-08
1.97948680737e-07
2.36129028088e-07
2.57919878367e-07
2.76550511572e-07
2.88716832843e-07
2.92820349941e-07
2.92629549189e-07
2.91269546961e-07
2.8966315918e-07
2.88039245793e-07
2.8643752692e-07
2.84876559991e-07
2.8335015012e-07
2.81855368183e-07
2.80396435694e-07
2.78966653979e-07
2.77563015668e-07
2.76182475703e-07
2.74901341807e-07
2.73570263753e-07
2.72257305761e-07
2.7096062112e-07
2.69679768886e-07
2.68419281538e-07
2.67175936139e-07
2.6594578626e-07
2.64735019391e-07
2.63545329364e-07
2.62375786528e-07
2.61229460105e-07
2.60181064694e-07
2.59086907404e-07
2.58020125682e-07
2.5698624526e-07
2.55992750522e-07
2.55043708355e-07
2.54141269949e-07
2.53288216535e-07
2.52489833685e-07
2.51749168607e-07
2.51068905971e-07
2.50454067185e-07
2.49907426499e-07
2.49431992746e-07
2.49029237237e-07
2.48700250011e-07
2.48446001097e-07
2.48266981211e-07
2.48212762416e-07
2.9324797449e-108
2.9324797449e-108
2.9324797449e-108
2.9324797449e-108
2.9324797449e-108
2.9324797449e-108
2.9324797449e-108
2.9324797449e-108
2.9324797449e-108
2.9324797449e-108
2.93247974491e-108
2.93247974491e-108
2.93247974515e-108
2.9324797588e-108
2.93248052716e-108
2.93252237273e-108
2.93482434835e-108
2.9810418516e-108
2.35429938061e-42
8.74539616648e-11
1.11974726761e-07
2.12085345879e-07
2.45342839984e-07
2.68280272693e-07
2.87484097261e-07
2.97986597294e-07
3.00472132419e-07
2.9952627891e-07
2.97718344665e-07
2.95763860461e-07
2.93824506767e-07
2.91932241431e-07
2.90087538361e-07
2.88366912407e-07
2.86617702045e-07
2.84902633048e-07
2.83230316277e-07
2.81596957669e-07
2.7999756177e-07
2.78425046322e-07
2.76886205537e-07
2.75375115144e-07
2.73886883442e-07
2.72429083893e-07
2.71068308591e-07
2.69659015441e-07
2.68272548635e-07
2.6691000119e-07
2.65569134552e-07
2.64257972252e-07
2.62978601608e-07
2.61730973633e-07
2.60518607695e-07
2.59340887597e-07
2.58284517939e-07
2.57196025488e-07
2.56155968199e-07
2.55165759692e-07
2.54232868532e-07
2.53362564455e-07
2.52558081011e-07
2.51821895273e-07
2.51156852996e-07
2.50565987553e-07
2.50051701177e-07
2.49615681692e-07
2.49259059295e-07
2.48981649231e-07
2.48785268262e-07
2.48718306164e-07
2.93247974472e-108
2.93247974472e-108
2.93247974473e-108
2.93247974473e-108
2.93247974473e-108
2.93247974473e-108
2.93247974473e-108
2.93247974473e-108
2.93247974473e-108
2.93247974473e-108
2.93247974473e-108
2.93247974475e-108
2.93247974556e-108
2.93247979144e-108
2.93248236513e-108
2.9326213975e-108
2.94019669082e-108
3.04900572538e-108
1.20383696153e-22
1.35661789759e-08
1.58980810245e-07
2.24722134673e-07
2.55590620194e-07
2.79981776858e-07
2.98712001668e-07
3.07127264099e-07
3.08124382573e-07
3.0646870146e-07
3.04257185184e-07
3.01971530964e-07
2.997963436e-07
2.97608369657e-07
2.95480450214e-07
2.93405378276e-07
2.9138651015e-07
2.89417987098e-07
2.87498518698e-07
2.85630366631e-07
2.83876535226e-07
2.82090756793e-07
2.80336883017e-07
2.78622062097e-07
2.769422211e-07
2.75292518119e-07
2.73680422208e-07
2.7210136789e-07
2.70626036397e-07
2.69109363271e-07
2.67624643783e-07
2.66173378174e-07
2.64754677946e-07
2.63378602718e-07
2.62046674171e-07
2.60759026657e-07
2.5951903519e-07
2.5832938056e-07
2.57275648356e-07
2.5620416187e-07
2.55196043978e-07
2.5425549118e-07
2.53386322118e-07
2.52589588509e-07
2.51869929501e-07
2.5123121278e-07
2.50675673049e-07
2.50205013828e-07
2.49819617309e-07
2.49520216673e-07
2.4930710593e-07
2.49228500123e-07
2.93247974457e-108
2.93247974457e-108
2.93247974457e-108
2.93247974457e-108
2.93247974457e-108
2.93247974457e-108
2.93247974458e-108
2.93247974458e-108
2.93247974458e-108
2.93247974458e-108
2.93247974458e-108
2.93247974462e-108
2.93247974688e-108
2.93247987213e-108
2.9324867904e-108
2.93285472642e-108
2.95218747302e-108
3.17782610432e-108
3.28875912876e-15
4.1812642366e-08
1.87854676004e-07
2.37112415367e-07
2.67568833273e-07
2.93111846847e-07
3.10250812905e-07
3.16175984381e-07
3.15802719916e-07
3.13564522419e-07
3.10947299524e-07
3.08318087671e-07
3.05749962471e-07
3.03257567648e-07
3.00829931819e-07
2.98479037065e-07
2.96256357378e-07
2.94032444168e-07
2.91864552237e-07
2.89747387191e-07
2.87689099334e-07
2.85681671266e-07
2.83793241309e-07
2.8187254719e-07
2.79995644766e-07
2.78162629407e-07
2.76368638085e-07
2.74610086718e-07
2.72896031364e-07
2.71223681413e-07
2.69668306442e-07
2.68072446991e-07
2.66523230603e-07
2.65021637985e-07
2.63569620595e-07
2.62165262854e-07
2.60817564195e-07
2.59533299565e-07
2.58390280158e-07
2.57234258276e-07
2.56147901345e-07
2.55136107116e-07
2.54201285708e-07
2.53344909707e-07
2.52572860337e-07
2.51888382508e-07
2.51293295338e-07
2.5078839126e-07
2.50374607996e-07
2.50052443637e-07
2.4982190696e-07
2.49730247952e-07
2.93247974444e-108
2.93247974444e-108
2.93247974444e-108
2.93247974444e-108
2.93247974444e-108
2.93247974444e-108
2.93247974444e-108
2.93247974444e-108
2.93247974444e-108
2.93247974444e-108
2.93247974445e-108
2.93247974461e-108
2.93247975383e-108
2.9324802665e-108
2.93250800097e-108
2.93401191268e-108
2.97045234635e-108
1.36447471577e-42
1.03740184668e-11
8.74456510065e-08
2.07718621449e-07
2.50229762908e-07
2.81506198501e-07
3.07380274353e-07
3.21669243191e-07
3.25054951366e-07
3.23473256807e-07
3.20634186237e-07
3.17604931833e-07
3.14611344899e-07
3.11708628574e-07
3.089656255e-07
3.06241601414e-07
3.03592056196e-07
3.01027882647e-07
2.98535116078e-07
2.96186563289e-07
2.93830575458e-07
2.91538573666e-07
2.89300827781e-07
2.87123473531e-07
2.84997929967e-07
2.83004449409e-07
2.80984190098e-07
2.79007972724e-07
2.77078472501e-07
2.75201266306e-07
2.73372453793e-07
2.71665154022e-07
2.69930716507e-07
2.68248476605e-07
2.66620617218e-07
2.65048764675e-07
2.6353402013e-07
2.62081165785e-07
2.60700054537e-07
2.59471842945e-07
2.58228249158e-07
2.57062741499e-07
2.55980338348e-07
2.54982575947e-07
2.54071796553e-07
2.53250767334e-07
2.52519075586e-07
2.51882102072e-07
2.51341565728e-07
2.50898333674e-07
2.50552934106e-07
2.50304413708e-07
2.50198799304e-07
2.93247974432e-108
2.93247974432e-108
2.93247974432e-108
2.93247974432e-108
2.93247974432e-108
2.93247974432e-108
2.93247974432e-108
2.93247974432e-108
2.93247974432e-108
2.93247974432e-108
2.93247974434e-108
2.93247974499e-108
2.93247978105e-108
2.93248177101e-108
2.93258781259e-108
2.93828623181e-108
3.02768294568e-108
9.60868556667e-29
6.69304006748e-09
1.4234409223e-07
2.25088752662e-07
2.64664682064e-07
2.97249444419e-07
3.21743142662e-07
3.32550595577e-07
3.33523890856e-07
3.30963540864e-07
3.27595832905e-07
3.24170709149e-07
3.20893205368e-07
3.17650105449e-07
3.14518301148e-07
3.11482358286e-07
3.08617877135e-07
3.05770503864e-07
3.0301042655e-07
3.00333630387e-07
2.97731882993e-07
2.95278119199e-07
2.92824071889e-07
2.90434939126e-07
2.88104458512e-07
2.85838419552e-07
2.8370918187e-07
2.81555182735e-07
2.79457132508e-07
2.77417871904e-07
2.75431672056e-07
2.73501266702e-07
2.71714799226e-07
2.69897345157e-07
2.68143886774e-07
2.6645625067e-07
2.64835543101e-07
2.63280951158e-07
2.61803352794e-07
2.60485124754e-07
2.59161457565e-07
2.57922199175e-07
2.56772641881e-07
2.55712602175e-07
2.54742830185e-07
2.53868142192e-07
2.53092821406e-07
2.52418367618e-07
2.51846921832e-07
2.51377846528e-07
2.51009803844e-07
2.50742889278e-07
2.50622880033e-07
2.93247974422e-108
2.93247974422e-108
2.93247974422e-108
2.93247974422e-108
2.93247974422e-108
2.93247974422e-108
2.93247974422e-108
2.93247974422e-108
2.93247974422e-108
2.93247974422e-108
2.93247974426e-108
2.93247974661e-108
2.93247987483e-108
2.93248685695e-108
2.93285354113e-108
2.95184341731e-108
3.17331888176e-108
3.34159943797e-16
3.76011202313e-08
1.85788053052e-07
2.42133233126e-07
2.81157199149e-07
3.14351063056e-07
3.35708676258e-07
3.42642497413e-07
3.41567444199e-07
3.3816842607e-07
3.34404070447e-07
3.30596295546e-07
3.26899852015e-07
3.23335773813e-07
3.19950541772e-07
3.1662020028e-07
3.13392199826e-07
3.10344240152e-07
3.07322761501e-07
3.04389742659e-07
3.01552745182e-07
2.98868993699e-07
2.96194090859e-07
2.93590991118e-07
2.91059957776e-07
2.88605270878e-07
2.86293615734e-07
2.83964571187e-07
2.81701397553e-07
2.79504648988e-07
2.77372787793e-07
2.75381011175e-07
2.73376845422e-07
2.71437225988e-07
2.69564247806e-07
2.67758685085e-07
2.6603319913e-07
2.64386322611e-07
2.62901150183e-07
2.6141460491e-07
2.60008846454e-07
2.58694262865e-07
2.57477491172e-07
2.56358764201e-07
2.55337940636e-07
2.54417090069e-07
2.5359897529e-07
2.52888075731e-07
2.52367619029e-07
2.51870146658e-07
2.51479132531e-07
2.51194141069e-07
2.51058593754e-07
2.93247974412e-108
2.93247974412e-108
2.93247974412e-108
2.93247974412e-108
2.93247974412e-108
2.93247974412e-108
2.93247974412e-108
2.93247974412e-108
2.93247974412e-108
2.93247974413e-108
2.93247974434e-108
2.93247975608e-108
2.93248039821e-108
2.93251454484e-108
2.93433410965e-108
2.97526490294e-108
1.6306492706e-42
1.69194334884e-11
9.00149001219e-08
2.11287032798e-07
2.60328599714e-07
3.00152323548e-07
3.3225308145e-07
3.48878013185e-07
3.51961707267e-07
3.4929517991e-07
3.45174357104e-07
3.40888165079e-07
3.36709704368e-07
3.32731300145e-07
3.2882994109e-07
3.25072168395e-07
3.21508219281e-07
3.18002965519e-07
3.1461015993e-07
3.11405871277e-07
3.08229902402e-07
3.05154685523e-07
3.02172054846e-07
2.99359193659e-07
2.96556018167e-07
2.93827312935e-07
2.91185220156e-07
2.88694605767e-07
2.86202269946e-07
2.83781301692e-07
2.81426194094e-07
2.79150173963e-07
2.77027486036e-07
2.74888156225e-07
2.72825856415e-07
2.70841469541e-07
2.68934898792e-07
2.67109987897e-07
2.6544982953e-07
2.63794059521e-07
2.62225949294e-07
2.60748978189e-07
2.59365605724e-07
2.58084964157e-07
2.56908510668e-07
2.55837610719e-07
2.5496133694e-07
2.54104012708e-07
2.5335549874e-07
2.52718512835e-07
2.5219351601e-07
2.5177940357e-07
2.51475596758e-07
2.51322904156e-07
2.93247974404e-108
2.93247974404e-108
2.93247974404e-108
2.93247974404e-108
2.93247974404e-108
2.93247974404e-108
2.93247974404e-108
2.93247974404e-108
2.93247974404e-108
2.93247974406e-108
2.93247974513e-108
2.93247980353e-108
2.93248297425e-108
2.93264922243e-108
2.94137064934e-108
3.06303862409e-108
1.84716665394e-22
1.34262489051e-08
1.54726131559e-07
2.33645048923e-07
2.80458959243e-07
3.20976018973e-07
3.49477173207e-07
3.60538574007e-07
3.60358571943e-07
3.56408579226e-07
3.5171182033e-07
3.47086126439e-07
3.42538078447e-07
3.38162017119e-07
3.34006453277e-07
3.29938363716e-07
3.26087494523e-07
3.22304478061e-07
3.18653114977e-07
3.15198468546e-07
3.11786351397e-07
3.08485677716e-07
3.05287257719e-07
3.02267199193e-07
2.99268898097e-07
2.96360310514e-07
2.93534815108e-07
2.90880299409e-07
2.88222850437e-07
2.85646808598e-07
2.83154524479e-07
2.80821815441e-07
2.78485373313e-07
2.76221387739e-07
2.74046383288e-07
2.71955818427e-07
2.7003208721e-07
2.68110447189e-07
2.66278502131e-07
2.64539458409e-07
2.62896909606e-07
2.61353011933e-07
2.59912171612e-07
2.58663378081e-07
2.57433147017e-07
2.5631028464e-07
2.55296717542e-07
2.54397643044e-07
2.53615380144e-07
2.52948791571e-07
2.52397799122e-07
2.51961753825e-07
2.5163984022e-07
2.51470878363e-07
2.93247974396e-108
2.93247974396e-108
2.93247974396e-108
2.93247974396e-108
2.93247974396e-108
2.93247974396e-108
2.93247974396e-108
2.93247974396e-108
2.93247974397e-108
2.93247974407e-108
2.93247974952e-108
2.93248004526e-108
2.93249579805e-108
2.93332302632e-108
2.96146089044e-108
4.69632678266e-43
3.06847221377e-13
5.61257553743e-08
1.98148586284e-07
2.56382759619e-07
3.0339243724e-07
3.42644290368e-07
3.65132934768e-07
3.70568023906e-07
3.67837298333e-07
3.62946753588e-07
3.5782154699e-07
3.52758395349e-07
3.47932345969e-07
3.43232036616e-07
3.38771821177e-07
3.34414875565e-07
3.30218602551e-07
3.26241561933e-07
3.22336527374e-07
3.18572571295e-07
3.15001467655e-07
3.11488122238e-07
3.08089046142e-07
3.04875963559e-07
3.0168550455e-07
2.98603308545e-07
2.95697063744e-07
2.9279474889e-07
2.89988772874e-07
2.87274246362e-07
2.84726596323e-07
2.8218337538e-07
2.79725203681e-07
2.77351829425e-07
2.7506708537e-07
2.72961674556e-07
2.70860319152e-07
2.68850710593e-07
2.66937687432e-07
2.6512332891e-07
2.63408363236e-07
2.61892792152e-07
2.60392955448e-07
2.59000348271e-07
2.57717345566e-07
2.5654673046e-07
2.55494903998e-07
2.54562903692e-07
2.53750576757e-07
2.53058341651e-07
2.52576712089e-07
2.52119722597e-07
2.51779008001e-07
2.51592784233e-07
2.93247974389e-108
2.93247974389e-108
2.93247974389e-108
2.93247974389e-108
2.93247974389e-108
2.93247974389e-108
2.93247974389e-108
2.93247974389e-108
2.93247974391e-108
2.93247974454e-108
2.93247977852e-108
2.93248160809e-108
2.93257689283e-108
2.93754887796e-108
3.01821892244e-108
4.29191194124e-29
1.99746387053e-09
1.25339172036e-07
2.27346696939e-07
2.81321530859e-07
3.2869711099e-07
3.63594209483e-07
3.78460529757e-07
3.79080376195e-07
3.74537328818e-07
3.68936894611e-07
3.63392564934e-07
3.57967567696e-07
3.52816585417e-07
3.47810459291e-07
3.43057140986e-07
3.38426455117e-07
3.339654935e-07
3.29744353058e-07
3.25606204444e-07
3.2169070136e-07
3.17837120126e-07
3.14118685771e-07
3.1060186791e-07
3.07127554608e-07
3.03771185825e-07
3.00603151178e-07
2.97454925397e-07
2.94409428784e-07
2.91466322542e-07
2.88699323046e-07
2.85943790968e-07
2.83281683591e-07
2.80715211804e-07
2.78328191087e-07
2.75947843764e-07
2.73662177336e-07
2.7147459779e-07
2.69384002017e-07
2.67488178883e-07
2.65605828819e-07
2.63829071193e-07
2.62162819315e-07
2.60607497984e-07
2.59166502807e-07
2.57843565864e-07
2.56729817507e-07
2.55643735611e-07
2.54677695042e-07
2.53834519817e-07
2.5311403712e-07
2.52514711098e-07
2.52036258091e-07
2.51678300156e-07
2.51473379704e-07
2.93247974383e-108
2.93247974383e-108
2.93247974383e-108
2.93247974383e-108
2.93247974383e-108
2.93247974383e-108
2.93247974383e-108
2.93247974383e-108
2.9324797439e-108
2.93247974732e-108
2.93247992911e-108
2.93248959145e-108
2.93298918304e-108
2.95641745623e-108
7.84441624311e-44
6.74127506352e-15
4.0525918384e-08
1.88953419902e-07
2.55264043452e-07
3.08922021403e-07
3.54613764249e-07
3.81755295504e-07
3.88998876515e-07
3.86030196493e-07
3.80278658998e-07
3.74215477374e-07
3.68238443147e-07
3.62548485799e-07
3.57037924147e-07
3.51803219225e-07
3.467866758e-07
3.4190407063e-07
3.37205641905e-07
3.32754587209e-07
3.28399453664e-07
3.24277354175e-07
3.20233172816e-07
3.16330161426e-07
3.12636220856e-07
3.08997544265e-07
3.05482817288e-07
3.02159888193e-07
2.98869417919e-07
2.95689288165e-07
2.92701308443e-07
2.89732593947e-07
2.86865436219e-07
2.84099769507e-07
2.81516284986e-07
2.78948855941e-07
2.76480956948e-07
2.74116590411e-07
2.71946015499e-07
2.6978709846e-07
2.67728701817e-07
2.65783468934e-07
2.6395189355e-07
2.62236794992e-07
2.60733255769e-07
2.59249644696e-07
2.57884585516e-07
2.56641866279e-07
2.55521936126e-07
2.54526901663e-07
2.53656926995e-07