/*--------------------------------*- C++ -*----------------------------------*\
| =========                 |                                                 |
| \\      /  F ield         | foam-extend: Open Source CFD                    |
|  \\    /   O peration     | Version:     4.1                                |
|   \\  /    A nd           | Web:         http://www.foam-extend.org         |
|    \\/     M anipulation  |                                                 |
\*---------------------------------------------------------------------------*/
FoamFile
{
    version     2.0;
    format      ascii;
    class       volScalarField;
    location    "0.001";
    object      OPlus;
}
// * * * * * * * * * * * * * * * * * * * * * * * * * * * * * * * * * * * * * //

dimensions      [0 0 0 0 0 0 0];

internalField   nonuniform List<scalar> 
8400
(
6.45488965557e-195
6.45488965561e-195
6.45488965564e-195
6.45488965568e-195
6.45488965571e-195
6.45488965574e-195
6.45488965578e-195
6.45488965581e-195
6.45488965584e-195
6.45488965587e-195
6.4548896559e-195
6.45488965593e-195
6.45488965596e-195
6.45488965599e-195
6.45488965602e-195
6.4548896561e-195
6.45488965887e-195
6.4548898148e-195
6.45489866033e-195
6.45538005165e-195
6.48184007235e-195
6.82250536464e-195
3.22068948495e-31
2.16281593621e-06
0.0104420463982
0.0616880056428
0.103020720751
0.125768645709
0.135962597626
0.139925583187
0.141267670038
0.141705570389
0.141903738883
0.142034057982
0.142141358921
0.14223764261
0.142327093251
0.142412255973
0.14249418788
0.142573991151
0.142652726662
0.142731273626
0.142810482305
0.142891125919
0.142973664812
0.143058817707
0.143147021875
0.143238698019
0.143334685255
0.143413493779
0.143517819263
0.143625215543
0.143736105969
0.143850170027
0.14396686399
0.144085405695
0.144204862087
0.144324143482
0.144442034294
0.144557142716
0.144668304837
0.144773918298
0.144872557811
0.144962803504
0.145043288548
0.1451127633
0.145170143353
0.14521467114
0.145245990081
0.145337165832
6.45488964416e-195
6.45488964417e-195
6.45488964419e-195
6.4548896442e-195
6.45488964421e-195
6.45488964423e-195
6.45488964424e-195
6.45488964425e-195
6.45488964427e-195
6.45488964428e-195
6.45488964429e-195
6.4548896443e-195
6.45488964432e-195
6.45488964433e-195
6.45488964434e-195
6.45488964457e-195
6.45488965686e-195
6.45489035831e-195
6.45492939441e-195
6.45710060781e-195
6.52234820833e-195
3.089008989e-73
4.72490898685e-16
4.14481231248e-05
0.0298947396211
0.0805825732654
0.114996721323
0.132073243046
0.139233698345
0.141771811134
0.142526605267
0.142793458881
0.142918025768
0.143016360803
0.143109051595
0.143200190796
0.143312392799
0.143404110873
0.143496790707
0.143590266177
0.143684697917
0.1437804427
0.143877525212
0.143976719547
0.144078249801
0.144182334035
0.144289215602
0.144399242678
0.144512560295
0.144629160769
0.144748858477
0.144871499375
0.144996826734
0.145123964187
0.14525232955
0.145381193731
0.145509494632
0.145636222165
0.145759915508
0.145879133103
0.14599316061
0.146100781891
0.146200782409
0.146291618824
0.146371844294
0.146440370397
0.146496493746
0.146539864511
0.146570260315
0.146645600004
6.45488963841e-195
6.45488963842e-195
6.45488963843e-195
6.45488963844e-195
6.45488963845e-195
6.45488963845e-195
6.45488963846e-195
6.45488963847e-195
6.45488963848e-195
6.45488963849e-195
6.45488963849e-195
6.4548896385e-195
6.45488963851e-195
6.45488963852e-195
6.45488963855e-195
6.4548896398e-195
6.45488971139e-195
6.45489380439e-195
6.45511884178e-195
6.46771803103e-195
6.66714817015e-195
1.29039320247e-46
1.0585570594e-07
0.00242304016299
0.0525613366524
0.0980818576227
0.124454814878
0.13653504517
0.141188894327
0.142692694461
0.143112123744
0.143247757861
0.143326549996
0.14339479394
0.143483630394
0.143553088617
0.143625263689
0.143699931525
0.143777107597
0.143856555016
0.143938785513
0.144024006104
0.144112505587
0.144204440707
0.14429984889
0.144398780938
0.14450142447
0.144607538623
0.144738556203
0.144852621024
0.144970804105
0.145091816785
0.145215058901
0.145339844655
0.14546547347
0.145591548288
0.145717093093
0.145840426481
0.145959687
0.146074050146
0.146183226089
0.14628675274
0.146382865225
0.146469395273
0.146544000004
0.146608065089
0.146641741732
0.14670373659
0.146732555034
0.146798205217
6.45488963475e-195
6.45488963476e-195
6.45488963476e-195
6.45488963477e-195
6.45488963477e-195
6.45488963478e-195
6.45488963479e-195
6.45488963479e-195
6.4548896348e-195
6.4548896348e-195
6.45488963481e-195
6.45488963481e-195
6.45488963482e-195
6.45488963483e-195
6.45488963491e-195
6.45488963945e-195
6.45488989748e-195
6.45490453856e-195
6.45570219933e-195
6.49901772498e-195
7.01054157734e-195
2.83635412116e-20
9.95687904683e-06
0.0195648209983
0.0717305733871
0.110140102296
0.130192957541
0.138765606939
0.141867656394
0.142788792694
0.143066877709
0.143175602709
0.143252941374
0.143324211379
0.143394416741
0.143486416905
0.143558607636
0.143633100217
0.143709786446
0.143788819019
0.143870357198
0.143954974507
0.144042996911
0.144134687449
0.144230191713
0.144329573119
0.144432886795
0.144540168812
0.144651384436
0.144766286661
0.144884845886
0.14500626933
0.145129746255
0.145254623703
0.145380158024
0.145505338013
0.145629374559
0.145751006304
0.145868919221
0.145982228609
0.146089712999
0.146190390782
0.146283202858
0.146366949975
0.14644050013
0.146502848871
0.146553832804
0.146593116742
0.146620490829
0.14667782581
6.45488963217e-195
6.45488963218e-195
6.45488963218e-195
6.45488963219e-195
6.45488963219e-195
6.45488963219e-195
6.4548896322e-195
6.4548896322e-195
6.45488963221e-195
6.45488963221e-195
6.45488963222e-195
6.45488963222e-195
6.45488963223e-195
6.45488963224e-195
6.45488963259e-195
6.45488965287e-195
6.45489081442e-195
6.45495525645e-195
6.45856530923e-195
6.54305326967e-195
6.12766961237e-73
2.36459396008e-14
9.37307652689e-05
0.0367144119238
0.0861856925278
0.11802030147
0.133382427856
0.139609376136
0.141739709363
0.142361240317
0.142593961553
0.142714223058
0.142813563877
0.142906735218
0.14299705243
0.143107130911
0.143196034095
0.143286019792
0.143377207564
0.14346973287
0.143564174288
0.143660990457
0.143760577617
0.143862871422
0.1439684774
0.144077515913
0.144190011426
0.144305968581
0.144425364579
0.144547840688
0.14467293342
0.144800139454
0.144929472078
0.145060014108
0.145190610917
0.145319987489
0.145446993547
0.145570941197
0.145691226839
0.145806530755
0.14591535071
0.146016723338
0.146109583952
0.146193253662
0.146266965689
0.146329803489
0.146381026178
0.146420208796
0.146447242647
0.146500528861
6.45488963025e-195
6.45488963025e-195
6.45488963026e-195
6.45488963026e-195
6.45488963026e-195
6.45488963027e-195
6.45488963027e-195
6.45488963028e-195
6.45488963028e-195
6.45488963028e-195
6.45488963029e-195
6.45488963029e-195
6.45488963029e-195
6.45488963032e-195
6.45488963158e-195
6.45488970377e-195
6.45489383575e-195
6.45512142998e-195
6.46786517068e-195
6.66946099328e-195
1.31777522787e-46
1.10343635238e-07
0.00239486533939
0.0521153745031
0.0970863486656
0.123144499555
0.135015087126
0.139629940345
0.141149631273
0.141623078877
0.141824221487
0.141967799562
0.142096810638
0.142220321839
0.142341350021
0.14246002833
0.142577177381
0.14269300389
0.142828980007
0.14294397446
0.143060244516
0.143177830835
0.14329740026
0.143419494626
0.143543975393
0.143670987224
0.143800548826
0.14393226705
0.144066411577
0.144202637564
0.144340542228
0.144480155723
0.144620990284
0.144762112481
0.144901934405
0.145039291706
0.145173463037
0.14530470522
0.145432203224
0.14555360473
0.145666771576
0.145771093914
0.145867170846
0.145933150501
0.146010165324
0.146075300517
0.146127981941
0.146167877487
0.146194557917
0.146265186457
6.45488962876e-195
6.45488962877e-195
6.45488962877e-195
6.45488962877e-195
6.45488962877e-195
6.45488962878e-195
6.45488962878e-195
6.45488962878e-195
6.45488962879e-195
6.45488962879e-195
6.45488962879e-195
6.4548896288e-195
6.4548896288e-195
6.45488962886e-195
6.45488963229e-195
6.45488982719e-195
6.45490091572e-195
6.45550670407e-195
6.48872561849e-195
6.89720594707e-195
9.13598329195e-26
4.25310176668e-06
0.013798579373
0.0652006188061
0.10494294903
0.126278006343
0.135572266403
0.139045843442
0.140187416062
0.140594130841
0.140812566281
0.140991379374
0.141158075577
0.141319787141
0.141477081031
0.141630874466
0.141781381948
0.141929502221
0.142076090055
0.142221825222
0.142367941531
0.142514155233
0.142660950568
0.142808327113
0.142956554791
0.143106275545
0.143257543878
0.143411083957
0.143566109134
0.143722204623
0.143878754474
0.144035053472
0.144191238054
0.144346572076
0.144500170785
0.144650560493
0.144796650995
0.144937980469
0.145074313383
0.145204037509
0.145325625328
0.145437818483
0.145539767174
0.145630998612
0.145710971678
0.145778909249
0.145834112607
0.145876200565
0.145905090243
0.14595496967
6.45488962758e-195
6.45488962758e-195
6.45488962758e-195
6.45488962759e-195
6.45488962759e-195
6.45488962759e-195
6.45488962759e-195
6.4548896276e-195
6.4548896276e-195
6.4548896276e-195
6.4548896276e-195
6.45488962761e-195
6.45488962761e-195
6.45488962778e-195
6.45488963748e-195
6.45489019244e-195
6.45492132645e-195
6.45665177072e-195
6.51657469336e-195
2.05145939355e-73
6.4086295012e-17
2.85751429895e-05
0.0263865255921
0.0763373620462
0.110727012401
0.128081024254
0.135415739628
0.138060227517
0.138955653304
0.139344725737
0.139596793224
0.139820211167
0.14003216655
0.140236700075
0.140435356746
0.140629089629
0.140818438966
0.141004265251
0.141187458449
0.141369355352
0.141549560894
0.141728454026
0.141906035403
0.142083341789
0.142260882768
0.142439712339
0.142618937707
0.14279840724
0.142976995493
0.143155464942
0.143333336057
0.143511246943
0.14368746087
0.14386150134
0.14403189987
0.144198192306
0.144359180396
0.144513841717
0.144661472935
0.144801205553
0.144932107424
0.145053853582
0.14514363476
0.14524253184
0.145328329164
0.145401055609
0.145460160949
0.145505190037
0.145536062144
0.145585654257
6.45488962662e-195
6.45488962662e-195
6.45488962662e-195
6.45488962662e-195
6.45488962663e-195
6.45488962663e-195
6.45488962663e-195
6.45488962663e-195
6.45488962664e-195
6.45488962664e-195
6.45488962664e-195
6.45488962664e-195
6.45488962665e-195
6.45488962714e-195
6.45488965492e-195
6.45489123832e-195
6.45497850377e-195
6.4598430472e-195
6.5612534105e-195
8.39031959841e-73
2.54642696068e-13
0.000144475697042
0.0387217626437
0.0854948007417
0.11490559855
0.128959011745
0.134727320129
0.136782770526
0.137518398839
0.137894640464
0.138210376144
0.138481238588
0.138742387441
0.138995149475
0.139239701672
0.139477685285
0.139710650755
0.139939064498
0.140163155709
0.140383463863
0.140600831864
0.140815477483
0.141028077364
0.141239424686
0.141450685892
0.141660947354
0.141869598836
0.142077314569
0.142263007582
0.142469592047
0.142674020064
0.142875771566
0.143073392232
0.143267404312
0.143457261888
0.143642228111
0.143820765098
0.143991774391
0.144154414812
0.144307630708
0.144450638764
0.144582246473
0.144701431054
0.144807433098
0.144899625262
0.144977616177
0.145041004158
0.145089582969
0.145123080165
0.145173262421
6.45488962582e-195
6.45488962583e-195
6.45488962583e-195
6.45488962583e-195
6.45488962583e-195
6.45488962583e-195
6.45488962584e-195
6.45488962584e-195
6.45488962584e-195
6.45488962584e-195
6.45488962584e-195
6.45488962585e-195
6.45488962587e-195
6.45488962732e-195
6.45488970962e-195
6.45489439605e-195
6.45515118937e-195
6.46940521692e-195
6.68799057266e-195
1.62864649612e-46
1.60385054814e-07
0.0024937187211
0.0506996739724
0.0932009633545
0.1178224054
0.129137175587
0.133659701991
0.135266508399
0.135919350585
0.136319328776
0.136660679972
0.136982613262
0.137294395839
0.137596361174
0.137889549458
0.138175025757
0.138453472467
0.138726778682
0.138994831346
0.139257221537
0.139515036634
0.139769691232
0.140021414637
0.140270095233
0.140516045511
0.140759577959
0.141000755488
0.141239527919
0.141477221436
0.141712150518
0.141943284865
0.142170269122
0.142392896108
0.142611165515
0.142823511263
0.14302884948
0.143226720852
0.143394398422
0.14357365549
0.143741227765
0.143897082376
0.144040289466
0.144169905832
0.144285064382
0.144385146986
0.144469722772
0.144538419049
0.144590876655
0.144627085882
0.14467771028
6.45488962516e-195
6.45488962516e-195
6.45488962516e-195
6.45488962516e-195
6.45488962517e-195
6.45488962517e-195
6.45488962517e-195
6.45488962517e-195
6.45488962517e-195
6.45488962517e-195
6.45488962518e-195
6.45488962518e-195
6.45488962525e-195
6.45488962893e-195
6.45488983663e-195
6.45490154143e-195
6.4555356865e-195
6.48990608928e-195
6.91070049929e-195
9.33786415779e-26
4.02493964251e-06
0.0125120294769
0.0616031172628
0.0994003792637
0.119698354133
0.128725180775
0.132252542735
0.133566328512
0.134167267538
0.134606673588
0.135002236744
0.135379246031
0.135743742712
0.136098605143
0.13644382417
0.136778918979
0.137106412532
0.137426960903
0.137739946676
0.138046471928
0.138347199105
0.138643064106
0.138935401496
0.139223211925
0.139506557386
0.139787093127
0.140042205881
0.140315296756
0.140584782878
0.140849920092
0.141109910192
0.141364652827
0.141614597395
0.141857853239
0.142093238026
0.142320314762
0.14253801412
0.142745229659
0.142940955343
0.143124861994
0.143295740355
0.143452397798
0.143594405842
0.143697031156
0.143806157372
0.143897506024
0.143971393422
0.144027804546
0.144066888855
0.144118260402
6.45488962459e-195
6.4548896246e-195
6.4548896246e-195
6.4548896246e-195
6.4548896246e-195
6.4548896246e-195
6.4548896246e-195
6.45488962461e-195
6.45488962461e-195
6.45488962461e-195
6.45488962461e-195
6.45488962462e-195
6.4548896248e-195
6.45488963546e-195
6.45489023932e-195
6.45492376873e-195
6.45676774245e-195
6.51919358486e-195
2.16720927211e-73
7.09647505457e-17
2.67356859682e-05
0.0243782514938
0.071690368384
0.10413229666
0.120658610398
0.127817490837
0.130563975403
0.131665067136
0.132271451756
0.132762330958
0.133217750327
0.133657452281
0.134080968624
0.134491995326
0.134892004197
0.135279757617
0.135657796724
0.136027041867
0.136389165282
0.13672208286
0.137068479655
0.13740778767
0.137741766155
0.138070720691
0.138393354934
0.138710901926
0.139024459598
0.139332491086
0.13963467452
0.139931099339
0.140221806038
0.140485218518
0.140762400858
0.141031353847
0.141291645422
0.141541853918
0.141781034386
0.142008241313
0.142222378495
0.142422459071
0.142607923177
0.142778180418
0.142931747466
0.14306784956
0.143185639659
0.143284752675
0.143364950136
0.143426059021
0.143468138331
0.143519776376
6.45488962411e-195
6.45488962411e-195
6.45488962411e-195
6.45488962412e-195
6.45488962412e-195
6.45488962412e-195
6.45488962412e-195
6.45488962412e-195
6.45488962412e-195
6.45488962412e-195
6.45488962413e-195
6.45488962414e-195
6.45488962472e-195
6.45488965737e-195
6.45489149517e-195
6.45499158399e-195
6.46049759091e-195
6.57104345915e-195
9.19543893554e-73
5.2152253153e-13
0.00014440762816
0.0366318888723
0.0804724289809
0.107698681325
0.12089344155
0.126486323267
0.128657930941
0.129621397062
0.130254890423
0.130806664413
0.131328182885
0.131829874952
0.132316251975
0.132765987402
0.13322239932
0.133668190242
0.134100570687
0.134521260499
0.134932032851
0.135335098599
0.135728404932
0.136113223487
0.136491136709
0.136861638847
0.13720442051
0.137561830602
0.137912074141
0.138255424605
0.138593284414
0.138923338033
0.139245313327
0.139559308547
0.139864334162
0.140161546513
0.140424903696
0.14069864126
0.140959413591
0.141207571031
0.141441297932
0.141659199433
0.141860254204
0.142043779376
0.142209089973
0.14235552515
0.14248245417
0.142589337277
0.142675802441
0.142741979325
0.14278742365
0.142839702294
6.45488962369e-195
6.45488962369e-195
6.4548896237e-195
6.4548896237e-195
6.4548896237e-195
6.4548896237e-195
6.4548896237e-195
6.4548896237e-195
6.4548896237e-195
6.45488962371e-195
6.45488962371e-195
6.45488962374e-195
6.4548896257e-195
6.45488973544e-195
6.45489589134e-195
6.45522843753e-195
6.47334749023e-195
6.73360363457e-195
4.78941897542e-35
3.81145533329e-07
0.0030998750294
0.0489081048077
0.0878917497512
0.110191843878
0.120551271794
0.124846912962
0.12658208544
0.127481040506
0.128151927524
0.128765239022
0.129331617444
0.129897907628
0.130445360241
0.130977669484
0.131493778158
0.131995091046
0.132482591894
0.132957034369
0.133399398474
0.133851751763
0.134294578122
0.134726602746
0.135149237817
0.13556411369
0.135969396085
0.136366459733
0.136734455007
0.137116007662
0.137488281328
0.137851752031
0.138207019304
0.138551807115
0.138885808478
0.139208930377
0.139519857678
0.139818658439
0.140080061766
0.140349071515
0.140601440466
0.140836878603
0.141053981594
0.141252417449
0.141431180242
0.141589356604
0.141726214935
0.141841143669
0.14193404551
0.14200476677
0.142053377781
0.142105976236
6.45488962333e-195
6.45488962333e-195
6.45488962333e-195
6.45488962333e-195
6.45488962333e-195
6.45488962334e-195
6.45488962334e-195
6.45488962334e-195
6.45488962334e-195
6.45488962334e-195
6.45488962334e-195
6.45488962344e-195
6.45488962885e-195
6.45488992844e-195
6.45490647599e-195
6.45578652799e-195
6.50202778093e-195
7.0417241438e-195
1.92227703579e-20
7.62473126515e-06
0.0147515449078
0.0604427774439
0.0938142393514
0.111624679546
0.119617955926
0.122920677121
0.124360135341
0.125225076413
0.125950314176
0.126629586048
0.127283304372
0.127914366225
0.128527127523
0.12911997734
0.129676265268
0.130235245056
0.13077865079
0.131309435278
0.131824017362
0.132326485465
0.132795904037
0.133277047525
0.13374586274
0.134203402603
0.134651399623
0.135091329825
0.135519256373
0.135938258544
0.136324875635
0.136724451099
0.137111639639
0.1374871868
0.137850662776
0.138202411952
0.138540011252
0.138862649856
0.13914645175
0.139436411585
0.139708134145
0.139961143637
0.140194521347
0.140407684183
0.140599200583
0.140768247133
0.140914342536
0.141037228633
0.141136629163
0.141212372357
0.141264498045
0.141317889357
6.45488962301e-195
6.45488962301e-195
6.45488962301e-195
6.45488962301e-195
6.45488962301e-195
6.45488962301e-195
6.45488962302e-195
6.45488962302e-195
6.45488962302e-195
6.45488962302e-195
6.45488962303e-195
6.45488962342e-195
6.45488964546e-195
6.4548908717e-195
6.45495720871e-195
6.45855435728e-195
6.54571482887e-195
5.42265262537e-73
7.57771689138e-15
5.72044386721e-05
0.0280260396725
0.0706279962225
0.0982448199613
0.112072079492
0.118204873095
0.120756846305
0.12201455644
0.122903970654
0.123694370024
0.124447959889
0.125172516964
0.125853136545
0.126529984571
0.127187302877
0.127823162639
0.128442150271
0.12902184064
0.129605741334
0.13017381989
0.130728556568
0.131268386828
0.131796805678
0.132288977023
0.132791535014
0.133282956826
0.13376311073
0.134230306604
0.134686747233
0.135110754796
0.135544599497
0.135964816104
0.136371890334
0.136764900341
0.137144434666
0.137509341043
0.137856640197
0.138161490079
0.138473288245
0.138764478569
0.139035112055
0.139284679573
0.139511990398
0.139715828231
0.139896257478
0.140052220561
0.140183498598
0.140289798898
0.140370717861
0.140426438833
0.140480434516
6.45488962273e-195
6.45488962273e-195
6.45488962273e-195
6.45488962273e-195
6.45488962273e-195
6.45488962273e-195
6.45488962273e-195
6.45488962273e-195
6.45488962274e-195
6.45488962274e-195
6.45488962277e-195
6.45488962433e-195
6.45488971058e-195
6.4548944703e-195
6.45514810707e-195
6.46877793679e-195
6.68260249801e-195
1.19028292184e-46
5.32569349452e-08
0.000723989131571
0.0417927181607
0.0792620809184
0.101275181895
0.111809617484
0.116414600577
0.118442842673
0.119596026445
0.120528786554
0.121390003467
0.122195444596
0.122992952932
0.123761174628
0.124506919458
0.125206981445
0.125906539399
0.126584510422
0.127241451831
0.12788216444
0.128482867391
0.129087743467
0.129676374953
0.130252104228
0.1308129847
0.131337174616
0.131872072362
0.132392688814
0.132899329925
0.133393643636
0.133875892616
0.134318531372
0.134773226311
0.135211272642
0.135633905096
0.136040977102
0.136431877514
0.13680380069
0.137130576263
0.137462272773
0.137772687659
0.138061991398
0.138328793663
0.138571174619
0.138787663008
0.138978053264
0.139143053429
0.139282548222
0.139395784928
0.139481773818
0.139540859419
0.139595531491
6.45488962248e-195
6.45488962248e-195
6.45488962248e-195
6.45488962248e-195
6.45488962248e-195
6.45488962248e-195
6.45488962248e-195
6.45488962248e-195
6.45488962248e-195
6.45488962249e-195
6.45488962259e-195
6.4548896282e-195
6.45488993489e-195
6.45490663516e-195
6.45578369293e-195
6.50120484732e-195
7.03094349155e-195
3.36251464371e-22
5.70243419831e-06
0.0117361747871
0.054613496513
0.0860561206245
0.103022010464
0.110890511437
0.114334666182
0.116014768529
0.1171413859
0.118107626165
0.119041229064
0.119938687262
0.12080337427
0.121621644726
0.122430545308
0.123216085659
0.123955345196
0.124691871165
0.125407488517
0.126101571599
0.12675546769
0.12741244138
0.128051812914
0.128674435748
0.129280492084
0.129847907604
0.130425182681
0.130986064849
0.131531366071
0.13206300066
0.132556668078
0.13305782055
0.13354247478
0.134010930746
0.134463544039
0.134897174258
0.135312806502
0.135683552568
0.136057813609
0.136410476076
0.136740417125
0.137046495408
0.137328305762
0.137584118715
0.137812804614
0.138014496918
0.138189619571
0.138312014414
0.138432346669
0.138523840753
0.138586949733
0.138642207374
6.45488962225e-195
6.45488962225e-195
6.45488962225e-195
6.45488962225e-195
6.45488962225e-195
6.45488962226e-195
6.45488962226e-195
6.45488962226e-195
6.45488962226e-195
6.45488962227e-195
6.45488962278e-195
6.45488965085e-195
6.45489118674e-195
6.45497286076e-195
6.45932500783e-195
6.55722579786e-195
6.43391064121e-73
1.85408182036e-14
6.08759918206e-05
0.0265405233452
0.0657666747954
0.0908962538498
0.10357381892
0.109384855503
0.112020853047
0.113483794346
0.114633446512
0.115688729696
0.116694066793
0.117645180159
0.118581562217
0.119485463992
0.120339824713
0.121186194725
0.122006990823
0.122779910403
0.12355171434
0.124299375927
0.125027803128
0.125711820892
0.126399475754
0.127069516528
0.127720700459
0.128332197096
0.128950087873
0.129549916448
0.130134834559
0.130702485656
0.131229063656
0.131764635555
0.132281266245
0.132779641031
0.133258706564
0.133718531474
0.134133392004
0.134552205989
0.134947760653
0.135320160899
0.135668737152
0.135991332603
0.136287538853
0.136557196566
0.136771846926
0.136985306351
0.137169320397
0.137324295686
0.137449898039
0.137546018965
0.137612429453
0.137667996854
6.45488962205e-195
6.45488962205e-195
6.45488962205e-195
6.45488962205e-195
6.45488962205e-195
6.45488962205e-195
6.45488962205e-195
6.45488962205e-195
6.45488962206e-195
6.4548896221e-195
6.45488962467e-195
6.45488976434e-195
6.45489734828e-195
6.4552949909e-195
6.47615543645e-195
6.76716838522e-195
7.21465221097e-35
3.62771055129e-07
0.00161898625485
0.0414206130045
0.0748092938443
0.093969304833
0.103232248993
0.10747789864
0.109564492768
0.110946566288
0.112141774871
0.113247046946
0.114327398781
0.115367854261
0.116353754037
0.117325859885
0.118243889463
0.119151641441
0.120031125897
0.120860340543
0.121686356901
0.122486066331
0.12326488216
0.123998250875
0.124732648779
0.125445779384
0.12614251631
0.12679414601
0.127453178988
0.128093021681
0.128713761919
0.129292131688
0.129877636023
0.130445321752
0.130991899287
0.131519537497
0.132001359033
0.13248669569
0.132949423793
0.133389407374
0.133805457692
0.134196710071
0.134562650701
0.134874489754
0.135185597971
0.13546781626
0.135721458773
0.135945175875
0.136138339703
0.136300832588
0.136432428868
0.136533070506
0.136602948493
0.136659383224
6.45488962187e-195
6.45488962187e-195
6.45488962187e-195
6.45488962187e-195
6.45488962187e-195
6.45488962187e-195
6.45488962187e-195
6.45488962187e-195
6.45488962188e-195
6.45488962212e-195
6.45488963516e-195
6.45489034254e-195
6.45492802103e-195
6.45690663651e-195
6.52420851135e-195
1.89643190572e-73
2.06833350854e-17
1.59728882507e-05
0.0158364337576
0.0547481398009
0.0813984704312
0.0954816206318
0.102130154447
0.105277300634
0.1070491636
0.108418652807
0.109653718934
0.110847594831
0.111979272792
0.113088689631
0.114139834393
0.115174501211
0.116174561409
0.117120999006
0.118057475563
0.118963690045
0.119821614471
0.120672752927
0.121499524917
0.12227895084
0.123060197951
0.123817629105
0.124529282787
0.125247958722
0.12594348634
0.126619890923
0.127252102127
0.1278886395
0.128505277684
0.129102286576
0.129680035247
0.130208626224
0.130741747928
0.131251332463
0.131736946591
0.132197767126
0.132635909626
0.133017615197
0.133400189796
0.133753430579
0.13407803123
0.134372985577
0.134636575118
0.134869090588
0.135070461939
0.135240869597
0.135349720782
0.135455428915
0.135528698237
0.135585962541
6.4548896217e-195
6.4548896217e-195
6.4548896217e-195
6.4548896217e-195
6.4548896217e-195
6.4548896217e-195
6.45488962171e-195
6.45488962171e-195
6.45488962174e-195
6.45488962324e-195
6.45488970453e-195
6.4548940806e-195
6.45512198852e-195
6.46701428848e-195
6.65996586486e-195
5.39650550029e-47
1.85174984528e-09
0.000216571326421
0.0320987092395
0.0655703106085
0.0856680567978
0.0956817024963
0.100446691613
0.102873293254
0.104497852757
0.105900513726
0.10719961884
0.108465158122
0.109664401485
0.110838419779
0.111953441959
0.113047784569
0.114106594177
0.115107676061
0.116099363669
0.117035256957
0.117965480249
0.11886658112
0.119717228387
0.120565474802
0.121388503637
0.122163137645
0.122941291538
0.123695862751
0.12442822973
0.125114803241
0.125805625088
0.126473955653
0.127121578688
0.127720693421
0.128324183338
0.128904206592
0.129461153482
0.129995276014
0.130474597872
0.13095672125
0.131411308482
0.1318376175
0.132235675033
0.132603480604
0.132940700112
0.13321811322
0.133493058819
0.133734884053
0.133944146369
0.134120492315
0.134263563307
0.134373282148
0.134450043202
0.134507843746
6.45488962155e-195
6.45488962155e-195
6.45488962155e-195
6.45488962155e-195
6.45488962155e-195
6.45488962155e-195
6.45488962155e-195
6.45488962156e-195
6.45488962171e-195
6.45488962989e-195
6.45489006472e-195
6.4549131757e-195
6.45610812959e-195
6.51214531507e-195
3.1937899578e-74
4.1151389019e-20
6.71999603323e-06
0.00982192165785
0.0471386162441
0.0735974756704
0.0879619831155
0.0949642443969
0.0983995407329
0.100419504039
0.102004102212
0.103437477373
0.104822688513
0.106134433385
0.107416670541
0.108633961192
0.10980605668
0.110958135553
0.112072364701
0.113126125721
0.114168959324
0.115154318475
0.116130191944
0.117077294871
0.117971461726
0.118861784524
0.119725306547
0.120540176386
0.121355765251
0.122147678718
0.122888943924
0.123633411293
0.124354259078
0.125052641174
0.125702602699
0.126355434541
0.126983746856
0.12758876907
0.12813979464
0.128693419426
0.129222365308
0.12972202918
0.130192819736
0.130635405579
0.131017072756
0.131399171235
0.131748330539
0.132064750613
0.132348208383
0.132598232546
0.132814733564
0.132997288247
0.133146362332
0.133230074451
0.133311314418
0.133370082912
6.45488962141e-195
6.45488962141e-195
6.45488962141e-195
6.45488962141e-195
6.45488962141e-195
6.45488962142e-195
6.45488962142e-195
6.45488962144e-195
6.45488962275e-195
6.45488969185e-195
6.45489335047e-195
6.45508131761e-195
6.46474975372e-195
6.63015673942e-195
1.3378806306e-72
1.6769266993e-11
0.000126231746745
0.0271954531055
0.0592084315644
0.0786554426219
0.088604011501
0.0934982213704
0.0961384398832
0.0979669122272
0.0995504610116
0.101042045205
0.102490754813
0.103865054575
0.105209027194
0.106484199257
0.107712899563
0.108918929421
0.110060670839
0.111185500993
0.112275678496
0.113304459941
0.114327128326
0.115291153082
0.116249445673
0.117178472462
0.118056445284
0.118931769711
0.119781094039
0.120579102215
0.121379233248
0.122154278234
0.122879067332
0.123606668443
0.124308761356
0.12498602368
0.125609610228
0.126236786642
0.126836653155
0.127409122557
0.12795423309
0.128440245618
0.128927936946
0.129384349823
0.129809131771
0.130201372277
0.130561741873
0.130855209088
0.131148124167
0.131406113881
0.131629338244
0.131817455112
0.131970864221
0.132089424334
0.132173484638
0.132233194473
6.45488962129e-195
6.45488962129e-195
6.45488962129e-195
6.45488962129e-195
6.45488962129e-195
6.45488962129e-195
6.45488962129e-195
6.45488962147e-195
6.45488963081e-195
6.45489012169e-195
6.45491584533e-195
6.45622774587e-195
6.51498004165e-195
4.17471709231e-74
4.16884580356e-20
6.32847058639e-06
0.00829430563782
0.0431171117276
0.067828972775
0.081370118134
0.0881287066684
0.0916260213457
0.0937930769716
0.0955662146595
0.0971881179747
0.0987361575813
0.100243354447
0.101675507085
0.103052296941
0.104399757659
0.105679647071
0.106934904958
0.10812331485
0.109296714408
0.110403562275
0.111500944981
0.112536129537
0.113564128351
0.114559870338
0.11549897118
0.116436347577
0.117317683843
0.118199338504
0.119053606247
0.119882884042
0.12065806835
0.121437511116
0.122189561878
0.122885401139
0.12358642616
0.124260050737
0.124907014201
0.125495779629
0.126086671284
0.126647919687
0.127178713347
0.127679627187
0.128149193259
0.128552813558
0.12895599018
0.129324576165
0.129658167255
0.129957901115
0.130223054284
0.1304522158
0.130646219356
0.130771419046
0.13089456333
0.130982097448
0.13104301341
6.45488962117e-195
6.45488962117e-195
6.45488962117e-195
6.45488962117e-195
6.45488962117e-195
6.45488962117e-195
6.45488962121e-195
6.45488962315e-195
6.45488972418e-195
6.45489497974e-195
6.45516019362e-195
6.46846545914e-195
6.67872399623e-195
6.21700406934e-47
1.11627665472e-09
0.000154736520253
0.026226465183
0.0555539258607
0.0731032390207
0.0821788277935
0.0868193436278
0.0894989898792
0.0914906834414
0.0932583473198
0.0949298885015
0.0965321784313
0.098091932291
0.0995733106752
0.101000006722
0.102396242296
0.103719365547
0.104996078512
0.106250116186
0.10743811807
0.108611709699
0.10971975302
0.110816634078
0.111880896581
0.112884168391
0.11388195185
0.114821231779
0.115759377427
0.116669065875
0.117523388863
0.118378136854
0.119206040654
0.119977057498
0.120751624566
0.121499062823
0.122219621988
0.122879229934
0.123544734001
0.124180146775
0.124786290482
0.125328993285
0.1258742524
0.126387440567
0.126867103597
0.127311875384
0.127724998604
0.128067699176
0.128410624101
0.128717536925