/*--------------------------------*- C++ -*----------------------------------*\
| =========                 |                                                 |
| \\      /  F ield         | foam-extend: Open Source CFD                    |
|  \\    /   O peration     | Version:     4.1                                |
|   \\  /    A nd           | Web:         http://www.foam-extend.org         |
|    \\/     M anipulation  |                                                 |
\*---------------------------------------------------------------------------*/
FoamFile
{
    version     2.0;
    format      ascii;
    class       volScalarField;
    location    "0.001";
    object      p;
}
// * * * * * * * * * * * * * * * * * * * * * * * * * * * * * * * * * * * * * //

dimensions      [1 -1 -2 0 0 0 0];

internalField   nonuniform List<scalar> 
8400
(
66.7281849979
66.7281849979
66.728184998
66.728184998
66.728184998
66.7281849981
66.7281849981
66.7281849982
66.7281849982
66.7281849983
66.7281849983
66.7281849983
66.7281849984
66.7281849984
66.7281849985
66.7281849986
66.7281850022
66.7281852068
66.7281968124
66.7288284141
66.7635448587
67.2105092761
454.394523296
2749.38135338
13117.4576953
39966.7222793
91469.6021404
160862.4956
221445.617191
254389.303233
266011.307624
268999.530157
269564.275092
269544.406009
269402.752677
269248.281854
269105.418992
268979.514455
268869.935148
268775.137209
268693.638522
268624.136208
268565.800254
268518.030823
268479.700904
268449.68777
268426.667504
268410.056133
268405.081102
268387.109034
268395.008843
268400.918675
268409.820253
268422.529302
268439.138143
268459.266495
268482.427132
268508.277899
268536.526208
268566.352837
268597.847258
268631.021314
268666.559376
268704.531148
268744.245905
268784.970701
268826.481462
268869.1784
268915.86704
269778.122769
66.7281849829
66.7281849829
66.7281849829
66.7281849829
66.728184983
66.728184983
66.728184983
66.728184983
66.728184983
66.728184983
66.7281849831
66.7281849831
66.7281849831
66.7281849831
66.7281849831
66.7281849834
66.7281849996
66.7281859199
66.7282371366
66.7310858422
66.816692907
89.7357218974
915.258201592
4501.40491887
21034.1399565
56774.5932396
117799.313669
188168.717275
239670.906609
263241.22474
270778.320445
273025.979668
273904.926328
274470.509104
274954.875464
275404.288192
275854.202969
276265.906316
276666.069233
277049.837062
277416.273333
277765.78418
278099.123089
278417.032675
278719.158386
279004.959549
279274.768
279530.445917
279773.52554
280004.806814
280223.375668
280428.355601
280619.973325
280798.662889
280965.930665
281123.795145
281273.541072
281413.925789
281541.811093
281655.744375
281759.258864
281856.65849
281949.803737
282036.197997
282112.373026
282177.861947
282235.975678
282289.438816
282340.936863
283059.049857
66.7281849753
66.7281849754
66.7281849754
66.7281849754
66.7281849754
66.7281849754
66.7281849754
66.7281849754
66.7281849754
66.7281849754
66.7281849755
66.7281849755
66.7281849755
66.7281849755
66.7281849755
66.7281849772
66.7281850711
66.7281904413
66.7284856979
66.7450162615
67.0066753679
249.567307046
2083.35395539
9450.42384848
33049.0608571
79923.6247197
148440.757738
214120.409162
253231.835908
268184.485388
272634.599817
274127.777576
274923.392152
275540.210457
276116.768935
276637.106606
277134.901702
277607.853674
278056.030161
278479.542314
278879.279164
279256.662013
279613.402864
279950.07276
280266.005134
280561.193108
280837.610905
281092.968304
281354.324395
281580.745016
281798.095375
282000.139663
282186.6284
282358.28577
282518.167699
282670.822062
282816.660767
282948.871481
283061.22898
283157.560074
283249.459101
283345.187159
283440.028508
283518.997432
283569.479654
283615.690079
283651.700334
283728.427524
283773.030524
284382.749466
66.7281849705
66.7281849706
66.7281849706
66.7281849706
66.7281849706
66.7281849706
66.7281849706
66.7281849706
66.7281849706
66.7281849706
66.7281849706
66.7281849706
66.7281849706
66.7281849706
66.7281849708
66.7281849767
66.7281853153
66.7282045248
66.7292510828
66.7860825216
67.4572191645
689.583128978
3438.18565306
16602.1253257
47590.3185721
104204.849808
175386.67248
232465.655584
260757.199148
270173.841294
272967.087481
274066.598988
274776.966918
275377.287282
275921.580166
276448.588439
276921.884966
277371.078462
277792.57915
278186.891055
278555.28289
278899.542637
279221.654512
279523.230073
279804.951359
280067.282761
280311.315771
280538.909029
280752.055434
280951.529604
281137.149553
281308.15083
281465.069529
281609.471601
281743.210649
281867.788878
281983.952592
282090.608139
282185.888375
282270.371205
282346.41453
282417.229067
282483.615518
282543.640082
282595.148474
282638.45484
282676.385337
282710.766577
282743.329322
283257.543992
66.7281849672
66.7281849672
66.7281849672
66.7281849672
66.7281849672
66.7281849672
66.7281849672
66.7281849672
66.7281849672
66.7281849672
66.7281849672
66.7281849672
66.7281849672
66.7281849672
66.7281849677
66.7281849943
66.7281865183
66.7282710684
66.7330075801
66.8438586497
113.095647532
1077.89781624
5366.51200948
24288.9753489
63428.5984803
127295.1913
196889.489026
244340.757138
264485.466249
270610.589448
272518.369697
273397.414178
274039.07959
274600.937185
275110.359577
275600.972659
276038.058593
276450.549301
276834.128001
277189.756341
277520.14435
277827.311025
278113.110513
278379.180817
278626.807532
278856.546164
279069.084749
279265.831294
279448.667556
279617.865341
279773.251997
279915.466015
280047.556923
280171.311964
280285.480794
280387.044755
280476.169204
280557.67225
280636.07709
280710.311832
280775.806915
280831.156589
280878.986794
280923.387915
280965.245245
281002.699249
281034.056707
281059.488872
281081.334814
281538.750757
66.7281849646
66.7281849646
66.7281849646
66.7281849647
66.7281849647
66.7281849647
66.7281849647
66.7281849647
66.7281849647
66.7281849647
66.7281849647
66.7281849647
66.7281849647
66.7281849647
66.7281849664
66.7281850611
66.7281904824
66.7284890938
66.7452093138
67.0097098702
251.283280933
2091.74498943
9470.02698337
33104.9445641
79949.3577407
148271.833444
213343.087044
251654.109063
265971.08703
270121.594894
271503.760304
272251.627259
272836.923805
273357.503297
273834.999198
274275.593676
274683.799454
275057.175015
275421.875446
275739.142941
276037.522859
276313.69247
276569.293841
276806.285911
277025.444561
277227.710358
277414.066942
277585.619155
277743.237129
277886.726442
278016.932377
278138.48363
278255.697104
278366.992277
278463.264968
278539.118431
278602.415621
278668.859428
278742.182105
278809.982305
278859.858258
278894.946824
278933.498912
278956.944454
279002.313851
279036.329887
279060.137725
279074.616628
279077.948064
279500.007907
66.7281849627
66.7281849627
66.7281849627
66.7281849627
66.7281849627
66.7281849627
66.7281849627
66.7281849627
66.7281849627
66.7281849627
66.7281849627
66.7281849627
66.7281849627
66.7281849628
66.7281849673
66.728185223
66.7281997716
66.7289945864
66.7725789288
67.3085189737
548.873676252
3015.71798932
14486.1610304
42991.8219639
96633.1466474
166831.127087
225641.424298
255907.259381
266119.452459
269033.920335
270100.649841
270749.321338
271281.072717
271759.82525
272198.964851
272603.94886
272977.742011
273322.343105
273639.586592
273931.571975
274200.637116
274447.940431
274675.474179
274884.888128
275077.682967
275255.170524
275418.004463
275568.092692
275705.300212
275830.060472
275942.761364
276044.99134
276140.255197
276229.98666
276312.240635
276382.664288
276441.195706
276493.430067
276545.162773
276595.123398
276638.505772
276672.911944
276701.119347
276726.97203
276751.479984
276773.014769
276789.601261
276800.867256
276808.699512
277200.821352
66.7281849611
66.7281849611
66.7281849611
66.7281849611
66.7281849611
66.7281849612
66.7281849612
66.7281849612
66.7281849612
66.7281849612
66.7281849612
66.7281849612
66.7281849612
66.7281849614
66.7281849741
66.7281857023
66.7282265511
66.7304969527
66.8091178595
82.1352198317
857.660228785
4193.81623209
19763.9910329
54040.7069562
113398.884325
183106.235927
234703.375828
258144.831915
265434.559715
267542.468907
268394.661636
268963.327153
269443.479118
269876.95322
270274.56737
270640.533151
270977.658178
271287.591966
271572.258439
271834.170345
272074.149455
272294.055271
272495.300224
272679.343043
272847.797742
273002.809889
273144.778418
273274.547059
273392.363544
273499.012495
273594.375127
273680.063304
273756.342983
273826.696408
273892.799251
273953.295664
274004.689367
274046.409195
274081.992162
274115.461204
274147.78258
274182.677445
274192.452192
274216.248135
274230.500762
274242.352703
274250.951576
274255.06182
274256.044486
274624.65187
66.7281849599
66.7281849599
66.7281849599
66.7281849599
66.7281849599
66.7281849599
66.7281849599
66.7281849599
66.7281849599
66.7281849599
66.7281849599
66.7281849599
66.7281849599
66.7281849606
66.728184997
66.7281870745
66.7283015697
66.7346840157
66.8677378517
131.642690477
1199.28440541
5934.61652786
25962.9957106
66260.7705416
130135.453831
197270.792914
241187.699773
258970.964892
264154.871709
265688.982369
266403.982032
266896.225114
267325.605578
267714.598753
268070.229261
268395.949763
268694.8404
268968.669975
269219.066681
269447.898679
269656.947592
269847.747743
270021.317737
270179.071742
270323.47595
270454.899046
270574.318608
270687.609515
270770.747532
270864.766061
270944.134277
271014.487891
271075.922195
271130.331743
271180.169655
271226.544532
271267.362694
271300.543676
271326.773363
271348.619422
271369.036844
271387.988969
271403.318959
271413.475034
271419.308429
271422.744391
271424.510157
271424.219947
271421.812792
271771.315233
66.7281849588
66.7281849588
66.7281849588
66.7281849588
66.7281849588
66.7281849588
66.7281849588
66.7281849589
66.7281849589
66.7281849589
66.7281849589
66.7281849589
66.7281849589
66.7281849608
66.7281850688
66.7281912175
66.7285281391
66.7472299067
67.0340213068
269.881883308
2156.33967302
9675.91948588
33420.4654229
79798.6743178
146621.620925
209321.989489
245530.125497
258682.844556
262351.579789
263494.926262
264072.086466
264507.528935
264889.134309
265234.000736
265547.930107
265834.535305
266095.529743
266333.863656
266550.85548
266748.097694
266927.033992
267089.689785
267237.077994
267370.301454
267490.935532
267600.22494
267698.915622
267786.497358
267865.540702
267935.650028
267997.809512
268052.003197
268097.939404
268138.12513
268173.781713
268205.970387
268239.074359
268246.668309
268268.191332
268279.843143
268289.499474
268297.135416
268301.765
268302.512745
268300.154887
268296.027147
268290.655286
268283.459652
268274.992362
268604.866952
66.728184958
66.728184958
66.728184958
66.728184958
66.728184958
66.728184958
66.728184958
66.728184958
66.728184958
66.728184958
66.728184958
66.728184958
66.7281849581
66.7281849629
66.7281852354
66.7282005925
66.7290326123
66.7741277465
67.3262242839
551.818811784
3011.37167131
14299.0944748
42320.9058761
94639.810326
162647.836107
219286.952156
248112.70034
257608.098216
260163.518776
261021.28805
261496.331544
261869.333628
262198.020379
262495.269907
262764.791515
263008.539075
263229.847657
263430.566133
263611.767953
263775.39224
263922.914045
264054.876942
264173.509302
264279.275157
264373.499848
264462.957143
264523.223117
264595.141279
264654.671002
264706.81508
264751.570203
264788.147505
264818.165102
264842.691299
264864.135787
264882.603327
264896.691985
264905.601269
264909.533857
264911.008985
264910.884772
264908.858251
264910.716314
264889.029769
264884.3523
264868.9986
264850.652007
264832.2475
264816.819697
265129.120502
66.7281849572
66.7281849572
66.7281849572
66.7281849572
66.7281849572
66.7281849572
66.7281849572
66.7281849572
66.7281849572
66.7281849572
66.7281849572
66.7281849572
66.7281849575
66.7281849715
66.7281857638
66.7282297555
66.7306491115
66.812553934
83.0365974017
861.326914342
4180.81354888
19507.3354984
53028.0157544
110611.479083
177800.08214
227140.685982
249222.658034
255873.714125
257646.529868
258285.581141
258669.12652
258979.879775
259252.080128
259496.606489
259717.062185
259914.050568
260091.448779
260250.455646
260398.542681
260512.320659
260631.776791
260733.139055
260822.135519
260900.655599
260968.849644
261028.083565
261080.069651
261124.078508
261160.949346
261191.592734
261221.637112
261228.079434
261248.154469
261257.953794
261263.883709
261266.705567
261266.667891
261262.880784
261255.346243
261244.647191
261232.456744
261219.382914
261204.272052
261186.864444
261166.734369
261144.121884
261119.579026
261093.874899
261068.561566
261351.486979
66.7281849566
66.7281849566
66.7281849566
66.7281849566
66.7281849566
66.7281849566
66.7281849566
66.7281849566
66.7281849566
66.7281849566
66.7281849566
66.7281849566
66.7281849574
66.7281850002
66.7281874115
66.7283187314
66.7355427992
66.8805827276
138.75645183
1239.36230414
6028.21411361
26022.5302693
65687.3905266
127567.363128
191694.219325
232883.736579
249109.547321
253614.344873
254820.598914
255289.939983
255590.156222
255835.193971
256054.882179
256230.534254
256405.025028
256556.255951
256688.586414
256805.263286
256908.61459
257001.116727
257081.05981
257147.96246
257205.698364
257259.26633
257284.563588
257323.464453
257351.338472
257370.036057
257383.795181
257391.847231
257395.714347
257397.227719
257395.161967
257395.838123
257371.150649
257362.931215
257346.467483
257329.56187
257310.86921
257289.44632
257265.062068
257238.426925
257210.649728
257182.073956
257152.474421
257121.406225
257088.549595
257054.58188
257020.14212
257276.947675
66.728184956
66.728184956
66.728184956
66.728184956
66.728184956
66.728184956
66.728184956
66.728184956
66.7281849561
66.7281849561
66.7281849561
66.7281849561
66.7281849587
66.7281851027
66.7281931794
66.7286294913
66.7524023029
67.093867191
316.462058613
2320.42726922
10300.9435106
34341.1597281
80418.8151244
145021.576678
203822.183266
236551.843326
247919.491765
250874.443882
251673.696447
252013.38732
252223.582394
252412.613858
252570.982367
252709.46328
252828.335382
252930.662558
253018.262606
253096.58477
253145.511501
253203.470745
253247.767756
253281.77431
253307.058107
253326.222733
253338.208516
253350.092974
253338.612125
253341.180294
253332.889682
253318.983554
253302.422727
253283.491732
253263.311867
253241.185868
253215.271351
253191.991992
253146.519193
253120.494589
253087.991783
253054.161421
253017.785155
252980.101443
252941.840469
252903.393255
252864.239787
252823.451953
252780.942593
252737.249779
252693.651663
252924.685299
66.7281849556
66.7281849556
66.7281849556
66.7281849556
66.7281849556
66.7281849556
66.7281849556
66.7281849556
66.7281849556
66.7281849556
66.7281849556
66.7281849557
66.7281849628
66.7281853559
66.7282070668
66.7293617249
66.790031817
67.4981317492
680.251620658
3359.10788972
15757.9818306
44891.9165703
97202.785884
162295.736574
213704.412602
238333.932221
245902.655266
247751.648424
248260.467864
248482.127145
248631.897585
248750.045673
248849.618658
248933.154987
248986.711337
249044.227244
249085.490779
249117.503575
249138.382032
249156.566088
249148.783337
249154.177322
249147.726631
249135.085602
249117.901576
249098.198692
249073.744688
249051.25477
249005.911369
248978.204617
248940.695409
248901.696408
248861.662165
248821.340061
248778.935307
248740.359811
248681.214953
248640.457744
248593.092056
248545.459116
248497.384199
248449.001783
248399.35389
248348.787198
248297.653205
248246.175028
248194.44506
248142.444094
248090.678564
248296.193596
66.7281849551
66.7281849551
66.7281849551
66.7281849551
66.7281849551
66.7281849551
66.7281849551
66.7281849551
66.7281849552
66.7281849552
66.7281849552
66.7281849557
66.7281849846
66.7281865935
66.7282736299
66.7329932108
66.8473507056
107.995435568
1031.07225647
4991.10014743
22369.3409778
58006.7076843
115724.48104
178501.344496
221041.381431
238456.593244
243223.578044
244324.999454
244616.458267
244736.303552
244812.333341
244850.002582
244889.673144
244914.045684
244924.670324
244930.733747
244909.160664
244899.760003
244877.860952
244851.674383
244819.077361
244787.868332
244733.171903
244694.594145
244647.949176
244599.084079
244547.328094
244499.3733
244431.806457
244381.241403
244322.88653
244263.415083
244203.340462
244144.472345
244087.112143
244033.972433
243958.060775
243900.941531
243836.915716
243775.789908
243717.529002
243658.810941
243596.850341
243533.296217
243469.454767
243407.260768
243346.668291
243286.401807
243225.945338
243404.354736
66.7281849548
66.7281849548
66.7281849548
66.7281849548
66.7281849548
66.7281849548
66.7281849548
66.7281849548
66.7281849548
66.7281849548
66.7281849548
66.7281849569
66.72818507
66.7281913149
66.728524095
66.7464068939
67.0269519702
245.889012712
2029.60455406
8354.27762977
31196.5938113
73953.1225075
135298.325713
192776.589257
225679.565558
237179.264268
239984.100451
240584.621483
240718.785402
240733.64414
240739.75267
240724.017245
240702.872905
240652.760598
240614.83993
240565.143466
240509.005747
240453.547215
240375.309781
240312.24964
240241.240805
240169.031516
240099.725664
240009.789541
239939.120493
239861.820859
239783.335355
239705.443819
239633.35785
239537.971201
239463.321648
239381.386208
239302.115268
239228.142549
239157.825427
239088.622539
238990.75439
238910.368635
238831.161008
238763.364658
238699.676436
238629.734557
238550.848143
238469.570108
238393.38025
238325.768589
238261.577489
238192.24931
238120.325819
238271.503271
66.7281849544
66.7281849544
66.7281849544
66.7281849544
66.7281849544
66.7281849544
66.7281849544
66.7281849544
66.7281849544
66.7281849545
66.7281849546
66.728184962
66.7281853643
66.7282072757
66.7293580052
66.7889521002
67.4839871678
651.310296277
3238.41907014
14938.2554893
42816.4644194
92665.7522346
154858.968947
204195.171368
227753.124003
234781.501469
236303.952963
236551.102045
236559.151115
236506.887967
236437.092855
236343.542165
236259.154479
236172.029879
236060.534196
235964.2401
235861.057167
235758.895485
235639.166317
235536.548693
235427.788126
235319.109217
235215.137741
235093.463273
234992.563968
234886.079747
234780.543685
234681.831717
234565.984161
234469.587651
234367.563507
234266.176202
234167.865716
234072.920255
233987.760528
233882.546164
233792.874933
233695.26687
233601.239382
233516.290648
233437.130211
233354.691195
233265.089278
233174.00658
233092.611528
232996.278855
232924.968618
232849.339709
232771.356125
232893.179168
66.7281849541
66.7281849541
66.7281849541
66.7281849541
66.7281849541
66.7281849542
66.7281849542
66.7281849542
66.7281849542
66.7281849542
66.7281849548
66.7281849917
66.7281870068
66.7282941659
66.7340043305
66.8624534873
116.355159323
1076.93206896
5148.93011373
22677.62646
57828.7567753
113630.141183
173014.258914
212195.926836
227648.750983
231559.104621
232270.249797
232300.490103
232196.969541
232049.243556
231910.686804
231766.959895
231604.676127
231457.056895
231310.607307
231143.597469
230996.546337
230844.669179
230700.304509
230537.710737
230395.344913
230251.773281
230113.790688
229961.585165
229829.913783
229694.327859
229563.24468
229438.45342
229297.685508
229179.715389
229057.061247
228937.39507
228819.849108
228709.465008
228582.51736
228479.186975
228371.234919
228263.58131
228157.657542
228054.162728
227954.404673
227863.317285
227751.612492
227661.355274
227566.441213
227474.402838
227384.635534
227295.404878
227204.619872
227293.900002
66.7281849539
66.7281849539
66.7281849539
66.7281849539
66.7281849539
66.7281849539
66.7281849539
66.7281849539
66.7281849539
66.728184954
66.7281849573
66.7281851406
66.728195091
66.7287168116
66.7560864236
67.1379052823
332.711661808
2345.70528975
9752.2981809
33285.5884591
76445.5276109
135646.86788
188294.243118
216621.803589
225777.030634
227718.142607
227932.433922
227785.341121
227592.608997
227386.278272
227161.254447
226959.570985
226736.894473
226533.18212
226331.903582
226114.747476
225920.635356
225723.615826
225536.165837
225334.410294
225155.623392
224974.367449
224805.481655
224620.026174
224460.101941
224297.39485
224143.304321
223975.185537
223829.741787
223683.572072
223539.370143
223405.524241
223255.530353
223128.173028
222997.207517
222869.421055
222745.791352
222625.919857
222513.716362
222382.223987
222273.337447
222161.300717
222052.960527
221946.754558
221842.370629
221739.854804
221638.314729
221537.063025
221436.572442
221499.822836
66.7281849536
66.7281849536
66.7281849536
66.7281849536
66.7281849536
66.7281849536
66.7281849536
66.7281849536
66.7281849537
66.728184954
66.7281849711
66.7281858992
66.7282353347
66.7308313453
66.8191336876
81.2485068277
832.415757021
3926.93284216
17665.9641996
47702.3488547
98342.361199
156956.691891
199496.985841
217851.456423
222669.901474
223437.56347
223327.369814
223075.888375
222781.173245
222505.229032
222213.349824
221943.546653
221678.489567
221401.203899
221148.345455
220899.823762
220641.485455
220405.334923
220176.504447
219935.780426
219721.412427
219511.021891
219289.000204
219094.293603
218898.308652
218712.864863
218514.580444
218341.424386
218167.091348
217997.479273
217839.485142
217666.024527
217518.212616
217366.887654
217217.914949
217073.166416
216941.119547
216792.299108
216667.996864
216538.444725
216409.631606
216282.531262
216158.591498
216040.525133
215928.091276
215823.90486
215696.337773
215588.375853
215476.155188
215511.720601
66.7281849534
66.7281849534
66.7281849534
66.7281849534
66.7281849534
66.7281849534
66.7281849534
66.7281849534
66.7281849535
66.7281849554
66.7281850621
66.7281908036
66.7284898266
66.7440929275
66.9972519397
210.393546242
1734.04144294
7002.92246018
27948.7168564
66498.3861237
122312.480227
175391.727098
206092.415731
216544.027687
218699.843178
218806.826145
218498.275294
218147.277579
217772.22659
217424.495734
217067.302247
216732.753841
216409.939885
216076.877781
215776.846983
215463.825567
215178.747715
214902.244646
214615.696275
214357.91413
214107.024008
213844.972534
213612.557463
213381.130653
213161.780639
212931.061514
212727.810387
212524.901205
212333.302734
212127.816651
211949.026438
211771.187392
211597.998941
211435.387411
211255.26756
211101.550855
210947.659502
210799.490223
210654.946785
210512.142651
210377.34807
210223.908493
210095.392678
209965.781868
209841.176139
209719.430531
209598.166884
209476.293877
209355.748098
209361.767382
66.7281849532
66.7281849532
66.7281849532
66.7281849532
66.7281849532
66.7281849532
66.7281849532
66.7281849532
66.7281849534
66.7281849642
66.7281855347
66.7282158571
66.7297836771
66.803306365
69.8551940399
715.795223876
3402.50402256
15137.2056843
42467.6678949
89481.7294555
146052.214929
189056.560778
208378.077765
213482.859298
214162.474464
213885.703825
213466.044807
213009.036309
212579.695166
212144.829832
211722.349867
211334.023824
210959.790252
210575.949485
210228.59923
209870.303749
209541.675517
209224.672163
208901.146912
208605.982838
208321.578172
208028.933574
207765.384908
207510.729677
207245.805159
207009.76451
206776.506109
206555.500236
206323.084616
206117.798296
205913.920202
205722.0958
205515.820692
205336.488867
205157.231391
204982.210048
204812.771006
204655.308603
204480.69075
204331.64582
204179.23684
204030.428803
203885.481548
203744.53814
203607.734245
203473.833457
203348.201246
203202.482962
203080.72043
203059.985214
66.728184953
66.728184953
66.728184953
66.728184953
66.728184953
66.728184953
66.728184953
66.7281849531
66.7281849548
66.7281850455
66.7281898457
66.728436465
66.741121781
66.9581413562
179.145860087
1454.9284951
6335.42547311
25906.8364023
62150.4166398
115239.248826
166699.31052
197006.03329
207360.2541
209331.744526
209229.820853
208743.529887
208220.221204
207684.624574
207187.083807
206691.254907
206213.697282
205770.240123
205322.296563
204907.815813
204510.094147
204107.99355
203744.275921
203371.166969
203029.620203
202700.489408
202366.445034
202062.571589
201769.715361
201469.112463
201198.68392
200938.433824
200668.39288
200426.858275
200188.682071
199963.392097
199725.497068
199517.363339
199310.118021
199108.003096
198917.399026
198711.799045
198535.460233
198359.454938
198188.025248
198018.92074
197859.5043
197682.484493
197534.203469
197384.11627
197237.424381
197092.892662
196951.059869
196811.861913
196675.688624
196628.193331
66.7281849529
66.7281849529
66.7281849529
66.7281849529
66.7281849529
66.7281849529
66.7281849529
66.7281849531
66.7281849654
66.7281856094
66.7282193597
66.7299406177
66.8070256224
70.5815875295
718.348861038
3399.12225126
14809.4751574
41428.0582402
86721.7599051
140831.26358
181596.314083
199623.349225
204116.546811
204492.074471
204004.916398
203385.694747
202780.943873
202180.590256
201602.353292
201064.504968
200528.629005
200034.387009
199537.509236
199083.511846
198622.663808
198205.452249
197779.725742
197391.093433
197015.416927
196637.091676
196296.841404
195945.953734
195627.462795
195316.458141
195021.919112
194719.446238
194448.692861
194186.71132
193913.137098
193671.180854
193432.016538
193206.75667
192967.226421
192755.330669
192544.198038
192341.420709
192147.443862
191965.613445
191764.826253
191587.092196
191407.766169
191236.833701
191074.742996
190917.416237
190760.632744
190610.576613
190441.557822
190298.802032
190154.871728
190083.338871
66.7281849527
66.7281849527
66.7281849527
66.7281849527
66.7281849527
66.7281849527
66.7281849528
66.7281849553
66.7281850879
66.7281919834
66.728539953
66.7459969126
67.0218632443
215.779709418
1717.86751856
6777.07160639
26808.8075054
62973.5423473
114355.128539
162446.467485
189580.2645
198284.904247
199639.100319
199251.680081
198566.517947
197853.005257
197176.154321
196511.470852
195875.014773
195281.474467
194696.644206
194136.579004
193617.402444
193098.219487
192623.947347
192145.831556
191705.66653
191283.452785
190858.749999
190475.829874
190083.827566
189727.393839
189383.735303
189034.461015
188718.589372
188415.204718
188102.595385
187822.310704
187546.962378
187287.460659
187016.131752
186775.576072
186537.084723
186310.886718
186070.209738
185859.883168
185652.877828
185453.844662
185257.523607
185070.210307
184863.615207
184687.693882
184514.464851
184347.789418
184183.44003
184019.745609
183858.258968
183700.718795
183548.245534
183449.1275
66.7281849526
66.7281849526
66.7281849526
66.7281849526
66.7281849526
66.7281849526
66.7281849531
66.7281849796
66.7281863462
66.7282554732
66.7317034936
66.8354335421
85.5956858415
849.676821361
3899.60815101
16725.7677384
44539.4859519
89897.9147082
140970.218179
176852.511154
191426.991531
194555.470011
194457.04554
193728.826173
192928.301892
192146.640775
191391.363903
190685.677685
189996.247917
189335.809844
188723.49805
188120.252992
187543.76467
187010.006157
186476.508966
185988.655842
185498.069273
185047.020951
184614.252809
184181.708359
183790.473465
183389.542801
183025.094937
182675.073676
182319.275025
181997.022892
181681.763464
181383.526586
181076.224805
180801.734008
180531.338436
180275.052951
180007.871205
179769.214942
179532.661783
179310.171366
179073.933186
178868.060486
178661.645424
178458.686085
178260.949079
178068.689961
177890.047826
177695.717978
177528.850906
177357.790653
177189.323011
177024.395594
176863.783196
176737.736521
66.7281849525
66.7281849525
66.7281849525
66.7281849525
66.7281849525
66.7281849526
66.7281849586
66.7281852626
66.7282006108
66.7289526479
66.7651341161
67.2389632194
363.696169109
2373.34414737
8705.99149304
31092.0325705
69134.581496
119159.95848
161739.719145
183222.820387
189147.474005
189600.464548
188885.237038
187993.291077
187125.264453
186277.432212
185473.099246
184705.670789
183970.629972
183284.010667
182608.497043
181986.011257
181374.083045
180788.460897
180247.572564
179706.352888
179212.002212
178715.448303
178258.871285
177821.732634
177384.298167
176989.835528
176585.305504
176217.609641
175864.195475
175502.824855
175176.311482
174856.965727
174556.045964
174245.748535
173965.900382
173691.486871
173433.00105
173161.976611
172922.004397
172683.598928
172451.905739
172234.702799
172001.92502
171796.959103
171591.799705
171391.335913
171197.201365
171009.573571
170826.749835
170655.007813
170463.493982
170299.523685
170132.023403
169981.035703
66.7281849523
66.7281849523
66.7281849523
66.7281849523
66.7281849524
66.728184954
66.7281850358
66.7281891314
66.7283889654
66.738049706
66.919437253
138.391875404
1161.24064557
5238.78613743
21469.8480224
52511.6624328
98803.6652824
145189.519646
173543.989091
183250.089266
184680.888329
184051.686307
183085.784638
182105.391366
181164.215358
180267.996675
179412.655735
178614.055412
177838.152053
177097.469379
176408.747286
175735.316574
175092.597275
174497.661307
173905.802776
173363.702209
172823.078076
172327.787184
171831.750053
171374.737792
170938.255032
170500.064303
170104.844955
169700.6219
169331.970926
168971.53794
168631.000535
168282.338601
167969.233917
167667.782297
167354.397225
167073.39213
166797.704416
166538.855306
166265.883933
166023.454981
165781.856328
165547.804578
165322.456461
165110.858225
164881.238927
164680.166905
164477.749642
164281.701805
164090.861618
163905.631397
163724.986838
163547.897004
163373.989397
163198.896229
66.7281849522
66.7281849522
66.7281849522
66.7281849522
66.7281849527
66.7281849764
66.7281861634
66.7282447382
66.7310761452
66.8282991532
77.5924943565
770.54954928
3511.13898428
14344.8406423
39789.1480657
81040.1668621
128399.064122
162596.696728
176744.955902
179612.376037
179195.40532
178174.27122
177099.712385
176062.305402
175075.780645
174138.900665
173248.455617
172399.682678
171589.777252
170834.807417
170100.067066
169400.623405
168751.259493
168110.144404
167519.828686
166933.045187
166396.083529
165858.965655
165369.151889
164876.187957
164427.19293
163973.861249
163559.78601
163161.539579
162757.863935
162390.545887
162037.464601
161677.681431
161354.251661
161037.046473
160735.504393
160422.799919
160142.730141
159868.361323
159602.651383
159351.435523
159083.951402
158848.200854
158614.320077
158387.999291
158167.816823
157960.524785
157733.592464
157537.540573
157340.016407
157147.940244
156960.475699