/*--------------------------------*- C++ -*----------------------------------*\
| =========                 |                                                 |
| \\      /  F ield         | foam-extend: Open Source CFD                    |
|  \\    /   O peration     | Version:     4.1                                |
|   \\  /    A nd           | Web:         http://www.foam-extend.org         |
|    \\/     M anipulation  |                                                 |
\*---------------------------------------------------------------------------*/
FoamFile
{
    version     2.0;
    format      ascii;
    class       volScalarField;
    location    "0.001";
    object      rho;
}
// * * * * * * * * * * * * * * * * * * * * * * * * * * * * * * * * * * * * * //

dimensions      [1 -3 0 0 0 0 0];

internalField   nonuniform List<scalar> 
8400
(
0.00101999409838
0.00101999409838
0.00101999409838
0.00101999409838
0.00101999409838
0.00101999409838
0.00101999409838
0.00101999409838
0.00101999409838
0.00101999409838
0.00101999409838
0.00101999409838
0.00101999409838
0.00101999409838
0.00101999409839
0.00101999409839
0.00101999409844
0.00101999410136
0.00101999426729
0.00102000329714
0.00102049952844
0.00102688059577
0.0010828581028
0.00135593501599
0.00215875775236
0.00388122782663
0.00678882751638
0.0103891712805
0.013382313237
0.0149617366985
0.0155045094245
0.0156368627475
0.0156546475565
0.0156455353505
0.0156313832711
0.0156172268211
0.0156041098162
0.0155921617977
0.0155812885117
0.015571336377
0.0155621600618
0.0155536411069
0.0155456866458
0.0155382131349
0.0155311257961
0.0155243168797
0.0155176969421
0.0155112197171
0.0155051090741
0.0154993577645
0.0154934083088
0.0154871629275
0.0154808776115
0.0154746125252
0.0154683941334
0.0154622408807
0.015456191224
0.0154502996346
0.0154446138737
0.0154391772855
0.0154340653585
0.015429401738
0.0154253046445
0.0154218402577
0.0154190438397
0.0154169620975
0.0154156639669
0.0154152161926
0.0154157813881
0.015455588254
0.00101999409816
0.00101999409816
0.00101999409816
0.00101999409816
0.00101999409817
0.00101999409817
0.00101999409817
0.00101999409817
0.00101999409817
0.00101999409817
0.00101999409817
0.00101999409817
0.00101999409817
0.00101999409817
0.00101999409817
0.00101999409817
0.0010199940984
0.00101999411158
0.00101999484482
0.00102003562478
0.00102125676353
0.00103593825764
0.00114393779238
0.00157193766019
0.00268133325513
0.00485014534859
0.008147321072
0.0117020327971
0.0142048306246
0.0153262777361
0.0156810385275
0.0157836442158
0.0158224189944
0.0158462328778
0.0158660850926
0.015884165593
0.0159009286486
0.015916922696
0.0159322367264
0.0159466238567
0.0159600286572
0.0159724558481
0.0159839271169
0.0159944375922
0.0160039468026
0.0160124218569
0.0160198840932
0.016026398743
0.0160320350291
0.0160368144812
0.0160406990875
0.0160436700746
0.0160457760075
0.0160471127845
0.0160478097404
0.0160480057858
0.0160477716847
0.0160470624453
0.0160458329974
0.0160442029899
0.0160424569258
0.0160408587905
0.016039471615
0.0160382028593
0.0160370179949
0.0160360837266
0.0160356142855
0.0160357089536
0.0160364917885
0.0160690789742
0.00101999409806
0.00101999409806
0.00101999409806
0.00101999409806
0.00101999409806
0.00101999409806
0.00101999409806
0.00101999409806
0.00101999409806
0.00101999409806
0.00101999409806
0.00101999409806
0.00101999409806
0.00101999409806
0.00101999409806
0.00101999409808
0.00101999409943
0.00101999417627
0.00101999840231
0.0010202350385
0.00102397298914
0.00106105614976
0.0012703666191
0.00193503716729
0.00344183264782
0.006125387904
0.0096992059356
0.0129459621529
0.0148253982217
0.0155331897341
0.0157430849816
0.0158136268916
0.0158508069145
0.0158791654173
0.0159040686809
0.0159271867941
0.0159489313707
0.0159691955732
0.0159879786603
0.0160052918392
0.0160211737156
0.0160356915781
0.0160489012666
0.0160607985332
0.0160713454485
0.0160805703049
0.0160886045262
0.0160953274287
0.0161007607308
0.0161053958919
0.0161092511913
0.0161120947881
0.0161139935038
0.0161151023833
0.0161156509414
0.0161157994153
0.0161154401644
0.0161143049199
0.0161124073257
0.0161102436227
0.016108422358
0.0161071033728
0.0161058090539
0.0161038871063
0.0161016182407
0.0161003752692
0.0161006051909
0.0161008026948
0.0161007279155
0.0161275631059
0.00101999409799
0.00101999409799
0.00101999409799
0.00101999409799
0.00101999409799
0.00101999409799
0.00101999409799
0.00101999409799
0.00101999409799
0.00101999409799
0.00101999409799
0.00101999409799
0.00101999409799
0.00101999409799
0.00101999409799
0.00101999409808
0.00101999410291
0.00101999437707
0.00102000931313
0.00102082026495
0.00103039606978
0.00110711106156
0.00144540687052
0.00238335891844
0.00431250180199
0.00742558911938
0.0110514089643
0.0138381534293
0.0151879590534
0.0156327759637
0.0157634831568
0.0158149025961
0.0158476785665
0.0158749842741
0.0158993617893
0.0159214269364
0.0159418905099
0.0159609260021
0.0159783450046
0.0159941601568
0.0160084295902
0.0160212330549
0.016032652971
0.016042744115
0.0160515253752
0.0160590201431
0.0160653048011
0.0160704880126
0.0160746571878
0.0160778449609
0.0160800432583
0.0160812858044
0.016081678723
0.0160813586009
0.0160804639481
0.0160791104124
0.0160773546128
0.0160751954866
0.016072653993
0.0160698713627
0.0160670892285
0.0160644940995
0.0160621170505
0.0160599041619
0.0160578695517
0.016056168826
0.0160549620146
0.0160543031342
0.0160542654816
0.016077349572
0.00101999409794
0.00101999409794
0.00101999409794
0.00101999409794
0.00101999409794
0.00101999409794
0.00101999409794
0.00101999409794
0.00101999409794
0.00101999409794
0.00101999409794
0.00101999409794
0.00101999409794
0.00101999409794
0.00101999409795
0.00101999409833
0.00101999412014
0.00101999533003
0.00102006310813
0.00102164491729
0.00104066106822
0.00117299163568
0.00166545432932
0.00289493133133
0.00522801799574
0.00864249119999
0.0121363800078
0.0144371148594
0.0153945448667
0.0156823014232
0.0157690910639
0.0158082384928
0.01583607515
0.0158600194578
0.0158813415901
0.0159004195835
0.0159179695606
0.0159341396314
0.0159486902878
0.0159616552035
0.0159731408697
0.0159832478914
0.0159920622997
0.0159996464241
0.0160060333263
0.0160112463186
0.016015335595
0.0160183813168
0.0160204549165
0.016021591914
0.0160218313789
0.0160212827397
0.0160201058915
0.0160183876133
0.0160160808992
0.0160131614104
0.0160098205932
0.0160063791781
0.0160030023298
0.015999607084
0.0159960814201
0.0159925244393
0.0159892101685
0.0159863381659
0.0159839215976
0.0159819042893
0.0159802820564
0.0159791213954
0.015978549481
0.0159990373985
0.0010199940979
0.0010199940979
0.0010199940979
0.0010199940979
0.0010199940979
0.0010199940979
0.0010199940979
0.00101999409791
0.00101999409791
0.00101999409791
0.00101999409791
0.00101999409791
0.00101999409791
0.00101999409791
0.00101999409793
0.00101999409929
0.00101999417689
0.00101999845233
0.0010202378695
0.00102401692184
0.00106145511135
0.00127244164454
0.00194149487981
0.0034573979773
0.00615513145636
0.00974083301105
0.0129807162467
0.0148315909354
0.0155097488436
0.0157019530496
0.0157630116697
0.0157938412689
0.0158169271523
0.0158369041234
0.0158547413354
0.0158707367728
0.0158850775876
0.0158976269296
0.0159084087679
0.0159179752508
0.0159264587703
0.0159336879555
0.0159397013364
0.0159445574594
0.0159483087321
0.0159509989274
0.0159526851676
0.0159534301637
0.0159532651806
0.0159522218124
0.0159504377956
0.0159481734055
0.0159455843011
0.0159424713554
0.015938479866
0.0159336930678
0.0159288045763
0.0159244172624
0.0159203639797
0.015916043364
0.0159112921489
0.0159066051523
0.0159028382023
0.0159001292911
0.01589765456
0.0158951971635
0.0158930653865
0.0158913355771
0.0158898424862
0.0159074265354
0.00101999409788
0.00101999409788
0.00101999409788
0.00101999409788
0.00101999409788
0.00101999409788
0.00101999409788
0.00101999409788
0.00101999409788
0.00101999409788
0.00101999409788
0.00101999409788
0.00101999409788
0.00101999409788
0.00101999409794
0.0010199941016
0.00101999430953
0.00102000566898
0.00102062848856
0.00102827950737
0.00109262652213
0.00139283653855
0.00225358397884
0.00406956498947
0.00708268749226
0.0107217279219
0.0136361827404
0.015096072738
0.0155767208598
0.0157076759609
0.0157511335253
0.0157746669919
0.0157926872022
0.0158081598338
0.0158217708681
0.0158337564396
0.0158442357285
0.015853279794
0.0158609530042
0.0158673332289
0.0158724850101
0.0158764740816
0.0158793767108
0.0158812637975
0.0158821941378
0.0158822141453
0.0158813579805
0.0158796609346
0.0158771765922
0.0158739599684
0.0158700950463
0.0158657418044
0.0158610719477
0.0158561221365
0.0158507721439
0.0158449645096
0.0158389084359
0.0158329591385
0.0158272999199
0.0158218410624
0.0158164503891
0.0158112087178
0.0158063712059
0.0158021210435
0.0157984683276
0.0157953516289
0.0157927444293
0.0157906857214
0.0157892880563
0.0158067099905
0.00101999409785
0.00101999409785
0.00101999409785
0.00101999409785
0.00101999409785
0.00101999409785
0.00101999409786
0.00101999409786
0.00101999409786
0.00101999409786
0.00101999409786
0.00101999409786
0.00101999409786
0.00101999409786
0.00101999409804
0.00101999410848
0.00101999469389
0.00102002722836
0.00102114881949
0.00103450008449
0.00113468317947
0.00154170075283
0.00261361814689
0.0047355149691
0.00800919066633
0.0115962010439
0.0141468861799
0.0152764866164
0.0156158737545
0.0157052349345
0.0157353699428
0.0157520218708
0.0157646108544
0.0157751161564
0.015784030035
0.015791531618
0.0157977178023
0.015802660493
0.0158064121426
0.0158090254796
0.0158105733095
0.0158111215207
0.0158107222298
0.0158094327733
0.0158073135009
0.0158044207771
0.015800805375
0.01579651926
0.0157916131293
0.0157861207502
0.0157800642056
0.0157735084403
0.0157666248058
0.0157596159434
0.0157525578784
0.0157453746861
0.0157380041369
0.0157305717962
0.0157233519441
0.0157165547777
0.0157101942209
0.0157044645233
0.0156993791754
0.0156945099169
0.0156899783815
0.0156861002722
0.0156828528621
0.0156802602921
0.0156784639444
0.0156948929192
0.00101999409784
0.00101999409784
0.00101999409784
0.00101999409784
0.00101999409784
0.00101999409784
0.00101999409784
0.00101999409784
0.00101999409784
0.00101999409784
0.00101999409784
0.00101999409784
0.00101999409784
0.00101999409785
0.00101999409837
0.00101999412811
0.00101999576725
0.00102008713772
0.00102198697995
0.00104438303721
0.00119381897909
0.00172826606974
0.00303256656916
0.00546278977567
0.00893557256289
0.0123751003927
0.0145449413521
0.0153990838639
0.0156356224631
0.0156954011275
0.0157144231902
0.0157241541199
0.0157310760366
0.0157363204651
0.0157402160765
0.0157428939909
0.0157444271681
0.0157448893602
0.0157443616995
0.0157429114253
0.0157405861657
0.0157374242177
0.0157334677864
0.0157287578281
0.0157233486919
0.0157173167554
0.0157107155189
0.0157038343957
0.015696735028
0.0156889572731
0.0156805336665
0.0156717808089
0.0156627967633
0.0156537267615
0.0156447095178
0.0156357813995
0.0156269001726
0.0156180685515
0.0156094324185
0.0156012282378
0.015593596528
0.015586529658
0.0155799790104
0.0155739645685
0.0155686031365
0.0155640114108
0.015560226014
0.0155572320703
0.0155550539917
0.0155703527601
0.00101999409782
0.00101999409782
0.00101999409782
0.00101999409782
0.00101999409782
0.00101999409782
0.00101999409782
0.00101999409782
0.00101999409782
0.00101999409782
0.00101999409782
0.00101999409782
0.00101999409782
0.00101999409785
0.0010199940994
0.00101999418749
0.00101999901391
0.00102026688285
0.00102436531431
0.00106417402263
0.00128404055913
0.00197277789033
0.00352107136451
0.00625559768996
0.00985441797668
0.0130591253084
0.0148481347425
0.0154763884557
0.0156367503162
0.0156742548804
0.0156844113945
0.015688032288
0.0156893483653
0.0156892619602
0.0156880310474
0.0156857654283
0.0156825415722
0.0156784254815
0.0156734941642
0.0156678204118
0.0156614419013
0.0156543816443
0.0156466937555
0.015638456723
0.0156297306437
0.0156205471841
0.0156109223134
0.0156008744487
0.0155904544529
0.0155797524971
0.0155688445624
0.0155577574204
0.0155465296206
0.015535287637
0.0155242023755
0.0155133508766
0.0155029777774
0.0154931000513
0.0154832973377
0.0154737376846
0.0154648107077
0.0154565295321
0.0154488736909
0.0154418762795
0.0154356279308
0.0154302404063
0.015425784856
0.0154222625765
0.0154196769992
0.0154340554723
0.00101999409781
0.00101999409781
0.00101999409781
0.00101999409781
0.00101999409781
0.00101999409781
0.00101999409781
0.00101999409781
0.00101999409781
0.00101999409781
0.00101999409781
0.00101999409781
0.00101999409781
0.00101999409788
0.00101999410178
0.00101999432134
0.00102000621641
0.00102065080626
0.00102853427894
0.00109422328747
0.00139863397092
0.00226761682152
0.00409594760565
0.00712071100929
0.0107592332347
0.0136520199903
0.0150759224875
0.0155223291077
0.0156258595188
0.0156456026496
0.015646996433
0.0156439372751
0.0156391874131
0.0156333279094
0.0156265623584
0.0156190065417
0.0156107166533
0.0156017521813
0.0155921996745
0.0155821082261
0.0155714843874
0.0155603467172
0.0155487402516
0.0155367309069
0.015524367704
0.0155119410497
0.0154995272277
0.0154866637153
0.0154733667892
0.0154599398702
0.0154464113702
0.015432790999
0.0154191676062
0.0154057284594
0.0153926112498
0.0153798193307
0.0153673322691
0.015355210728
0.0153435816143
0.0153325771462
0.0153222855986
0.0153127462889
0.015304272328
0.0152968732804
0.0152899576237
0.0152835810731
0.0152781889823
0.0152739224629
0.0152708492606
0.0152843307635
0.0010199940978
0.0010199940978
0.0010199940978
0.0010199940978
0.0010199940978
0.0010199940978
0.0010199940978
0.0010199940978
0.0010199940978
0.0010199940978
0.0010199940978
0.0010199940978
0.0010199940978
0.001019994098
0.00101999410936
0.00101999473999
0.00102002942308
0.00102119808024
0.00103500700703
0.00113752509667
0.00155064497495
0.00263357781476
0.00477003948501
0.00805399958928
0.011633184883
0.0141524416923
0.01524075999
0.015544411314
0.0156050484957
0.0156097845734
0.015602505741
0.0155922473296
0.0155808526745
0.0155687244758
0.0155559861039
0.0155427367546
0.0155290284288
0.0155148891618
0.0155006171372
0.0154863121219
0.0154715131219
0.0154561515183
0.0154404772966
0.0154245780189
0.0154085233052
0.0153923402034
0.0153760453467
0.0153596784264
0.0153432959596
0.0153269509971
0.0153109475739
0.015295342553
0.0152796564212
0.0152639384918
0.0152485769033
0.0152336920234
0.0152193203161
0.0152054712126
0.0151922153153
0.0151796830426
0.0151679652804
0.0151570945317
0.0151471087932
0.0151380469332
0.0151299318044
0.0151228034829
0.0151167206836
0.0151117423578
0.0151079344265
0.015119935274
0.00101999409779
0.00101999409779
0.00101999409779
0.00101999409779
0.00101999409779
0.00101999409779
0.00101999409779
0.00101999409779
0.00101999409779
0.00101999409779
0.00101999409779
0.00101999409779
0.0010199940978
0.00101999409841
0.00101999413295
0.00101999601372
0.00102009949567
0.00102217145594
0.00104616821212
0.00120314878617
0.00175510827915
0.00308989317326
0.00555669322413
0.00904655101887
0.0124555542364
0.0145591787059
0.0153519487846
0.0155457471784
0.0155736505614
0.0155652888834
0.0155493954761
0.0155317070559
0.0155135911789
0.0154953697873
0.0154766527825
0.0154574223266
0.0154379969759
0.0154184713774
0.0153988765363
0.0153792278047
0.0153594929539
0.0153395626073
0.015319685285
0.0153001395266
0.0152806078121
0.0152609720784
0.0152413330802
0.0152216429861
0.0152019864378
0.0151825286867
0.0151634046186
0.0151446741472
0.0151263052197
0.0151085433144
0.0150914809608
0.0150747136225
0.0150583457966
0.0150427027728
0.015027815107
0.015013724511
0.0150004991298
0.0149882295393
0.0149769946104
0.0149668414572
0.0149577828359
0.0149498183322
0.0149429599573
0.0149372444108
0.0149327444638
0.0149433894512
0.00101999409778
0.00101999409778
0.00101999409778
0.00101999409778
0.00101999409778
0.00101999409778
0.00101999409778
0.00101999409778
0.00101999409778
0.00101999409778
0.00101999409778
0.00101999409778
0.00101999409782
0.00101999409988
0.00101999421556
0.00102000046397
0.00102034081861
0.00102522021253
0.00107056557116
0.00130989765096
0.00204059636456
0.00365553241025
0.00646168989577
0.0100745599933
0.0131975157919
0.0148686674308
0.0154137468657
0.0155254035613
0.0155283754971
0.0155089522584
0.0154852883286
0.0154605154772
0.0154352753871
0.0154099517588
0.0153846237002
0.015359323382
0.0153341129734
0.0153092953708
0.0152849127938
0.0152604723515
0.0152359156026
0.0152114804439
0.0151872056858
0.0151631513673
0.0151393741021
0.0151161199798
0.0150933829685
0.0150706547066
0.0150479152689
0.0150254532393
0.015003396637
0.0149818959534
0.0149609948961
0.0149406546552
0.014920857863
0.0149019556778
0.0148841299602
0.0148669452402
0.0148504055383
0.0148347812223
0.0148200966666
0.0148064349613
0.0147939251838
0.014782652885
0.0147726130298
0.0147637620178
0.0147560867463
0.0147496247918
0.0147444544641
0.0147537749483
0.00101999409778
0.00101999409778
0.00101999409778
0.00101999409778
0.00101999409778
0.00101999409778
0.00101999409778
0.00101999409778
0.00101999409778
0.00101999409778
0.00101999409778
0.00101999409778
0.00101999409788
0.00101999410349
0.00101999441362
0.00102001090426
0.00102087716752
0.00103098610124
0.00111035211128
0.00145619719243
0.00240807838259
0.00435741337913
0.00748847825165
0.0111083391202
0.0138384233564
0.0150901403799
0.015437957265
0.0154893820063
0.0154726349615
0.0154424410809
0.0154099365563
0.0153772034558
0.0153446252189
0.0153125749886
0.0152811440493
0.015249920774
0.0152188517291
0.0151881639599
0.0151579248177
0.0151283435098
0.0150994081538
0.015070646256
0.0150420392359
0.0150138348979
0.0149860377013
0.014958683275
0.0149318181439
0.0149056822088
0.0148802648004
0.0148550795743
0.0148302149877
0.014806020298
0.0147825166462
0.0147597144476
0.0147376689086
0.0147167434563
0.014697014553
0.0146779707724
0.0146596712165
0.0146424619899
0.0146263684655
0.0146114161308
0.014597671861
0.0145852052371
0.0145740546815
0.0145642329986
0.0145557428025
0.0145485890137
0.0145428019742
0.0145507915111
0.00101999409777
0.00101999409777
0.00101999409777
0.00101999409777
0.00101999409777
0.00101999409777
0.00101999409777
0.00101999409777
0.00101999409777
0.00101999409777
0.00101999409777
0.00101999409778
0.00101999409819
0.00101999412124
0.00101999536798
0.00102006297127
0.00102169551211
0.00104086006871
0.00117301423312
0.00166395853616
0.00288985996859
0.00521526647542
0.00862206144341
0.0121037431667
0.0143589737808
0.0152326686374
0.0154314302916
0.0154387556143
0.0154053897775
0.0153647111946
0.0153234995984
0.0152830439771
0.0152431327529
0.0152037552942
0.0151651290725
0.0151274595765
0.0150907610212
0.0150545877925
0.0150188782889
0.014983842902
0.0149494902567
0.0149160329425
0.0148834971904
0.0148513798548
0.0148196061452
0.0147884513179
0.0147579697597
0.0147284145007
0.0146997952925
0.0146716071623
0.0146438654213
0.0146169036761
0.0145908149628
0.0145656536787
0.0145414481355
0.0145184947577
0.0144967659784
0.0144757433631
0.0144556601744
0.0144369594764
0.014419569435
0.0144033732749
0.0143883606635
0.0143746438452
0.014362374073
0.0143516194373
0.0143423414123
0.0143344756654
0.014328019629
0.0143345815973
0.00101999409776
0.00101999409776
0.00101999409776
0.00101999409776
0.00101999409776
0.00101999409776
0.00101999409776
0.00101999409776
0.00101999409776
0.00101999409776
0.00101999409776
0.00101999409779
0.00101999409941
0.00101999418882
0.00101999895474
0.00102025518402
0.00102426679713
0.00106310466135
0.00128145119598
0.00196623330572
0.00351660011815
0.00624124879653
0.00982628613654
0.0130072830454
0.0147459736939
0.0153041194407
0.0153958784833
0.0153714546317
0.0153244393245
0.0152743471439
0.0152244758337
0.0151754752059
0.0151278353677
0.0150816114419
0.0150363488286
0.014991979498
0.0149486972968
0.0149066920548
0.0148659760717
0.0148260455196
0.0147867875755
0.0147484179044
0.0147112296183
0.0146751898313
0.0146397281257
0.014604857741
0.0145708551987
0.0145376968464
0.0145056519888
0.0144747116623
0.0144443271046
0.0144146455011
0.0143861490692
0.01435886953
0.0143326022961
0.0143074116683
0.0142833660702
0.0142603276057
0.0142387503607
0.0142188828535
0.0142002519157
0.0141825537573
0.0141659873405
0.0141509838018
0.0141378377771
0.0141265048622
0.0141166169452
0.0141078335439
0.0141005262
0.0141058812118
0.00101999409776
0.00101999409776
0.00101999409776
0.00101999409776
0.00101999409776
0.00101999409776
0.00101999409776
0.00101999409776
0.00101999409776
0.00101999409776
0.00101999409776
0.00101999409787
0.00101999410362
0.00101999441686
0.00102001086699
0.00102086262948
0.00103078945261
0.00110861398464
0.00144964334244
0.00239102331618
0.00432357068333
0.00743502560009
0.0110444624081
0.0137693245276
0.0150016913207
0.015317058239
0.0153352022829
0.0152877299414
0.0152286193345
0.0151686156074
0.0151100912821
0.0150534146582
0.0149982119682
0.0149446182169
0.0148928112871
0.014842274583
0.0147928973078
0.0147451419302
0.0146990077242
0.0146539178522
0.0146097629479
0.0145667677846
0.0145252286097
0.0144851007669
0.0144457594976
0.0144071950288
0.014369702538
0.0143335301736
0.0142986819248
0.0142646130522
0.0142312891076
0.0141990475774
0.0141680473052
0.0141383874971
0.0141102649026
0.0140835143683
0.0140575188279
0.0140324953945
0.014009147614
0.013987621186
0.0139675801499
0.0139486857833
0.0139310473502
0.013915008061
0.0139010362346
0.0138891100276
0.0138785463828
0.0138692808739
0.0138615643349
0.0138652823034
0.00101999409776
0.00101999409776
0.00101999409776
0.00101999409776
0.00101999409776
0.00101999409776
0.00101999409776
0.00101999409776
0.00101999409776
0.00101999409776
0.00101999409777
0.00101999409829
0.00101999412717
0.00101999566257
0.00102007746495
0.00102191187458
0.00104310413756
0.0011853648495
0.00170072905124
0.0029689367168
0.00534459917206
0.00877270655545
0.0122039239358
0.0143581420755
0.0151439956076
0.0152867542505
0.0152548880469
0.0151885328863
0.0151179389864
0.0150487495979
0.0149815349132
0.0149165723558
0.0148539776131
0.0147932268669
0.0147344504018
0.0146777958407
0.0146226960048
0.0145690481477
0.0145172846991
0.0144673685679
0.014418691017
0.014371159688
0.014325312742
0.0142811352902
0.0142380083108
0.01419586202
0.0141549621922
0.014115625836
0.014077811777
0.0140409295586
0.0140050302677
0.013970414466
0.0139370761433
0.0139053368343
0.0138752912973
0.0138463959697
0.0138185743575
0.0137921053204
0.0137671412534
0.0137438511943
0.0137222357608
0.013702506071
0.0136846370227
0.0136680668146
0.0136528958393
0.0136394910677
0.0136277874036
0.0136176540171
0.0136090066861
0.0136108252769
0.00101999409775
0.00101999409775
0.00101999409775
0.00101999409775
0.00101999409775
0.00101999409775
0.00101999409775
0.00101999409775
0.00101999409775
0.00101999409775
0.0010199940978
0.00101999410043
0.00101999424306
0.00102000172137
0.00102039400285
0.00102585466935
0.00107487430116
0.00132805275476
0.00208716357553
0.00374652312575
0.00658806586137
0.0101848546777
0.0132143369524
0.0147552947579
0.0151891281643
0.0152177443057
0.0151526876556
0.015072072477
0.0149910368373
0.0149124840145
0.0148369379835
0.0147641643855
0.0146941005983
0.0146263332095
0.0145609393108
0.0144980873753
0.0144371618193
0.0143780025756
0.0143210407787
0.0142662367421
0.0142129661662
0.0141611118279
0.0141111734378
0.014063133167
0.0140163352926
0.0139707305848
0.0139268713779
0.0138847435293
0.0138437537923
0.0138038703556
0.0137654523228
0.0137288044665
0.0136938505273
0.013660021018
0.0136274006107
0.0135963653926
0.0135669457162
0.0135390927859
0.01351307783
0.013488973908
0.0134662558318
0.0134449592321
0.0134254030596
0.0134075941139
0.01339154016
0.0133772255586
0.0133646080368
0.0133536513703
0.0133443686357
0.0133448786085
0.00101999409775
0.00101999409775
0.00101999409775
0.00101999409775
0.00101999409775
0.00101999409775
0.00101999409775
0.00101999409775
0.00101999409775
0.00101999409775
0.001019994098
0.00101999411133
0.00101999482123
0.001020032107
0.00102129293876
0.00103573536561
0.00114029742273
0.00155725480117
0.00264364022308
0.00477719045224
0.00804083033534
0.011572769718
0.014006014792
0.0149762932236
0.0151617200497
0.0151188042847
0.0150308419499
0.0149377897176
0.0148470216708
0.0147597103892
0.0146759153272
0.0145952055415
0.0145176224394
0.0144432102164
0.0143713740002
0.0143022085776
0.0142357961533
0.0141715785693
0.0141096883313
0.0140502017503
0.0139924911518
0.013936762778
0.0138832141701
0.0138312151957
0.0137806795532
0.0137321027133
0.0136854817117
0.0136402281343
0.0135962617294
0.013553842281
0.0135133182153
0.0134747400667
0.0134374508762
0.0134013732264
0.0133668894676
0.0133341229312
0.0133034269549
0.0132747744185
0.013247475617
0.013221492
0.0131971524836
0.0131745727294
0.0131539237706
0.0131352794082
0.0131185117266
0.01310371557
0.0130908069014
0.0130792643232
0.013069293558
0.013068512208
0.00101999409774
0.00101999409774
0.00101999409775
0.00101999409775
0.00101999409775
0.00101999409775
0.00101999409775
0.00101999409775
0.00101999409775
0.00101999409777
0.00101999409931
0.00101999418173
0.00101999847297
0.00102022229125
0.001023846651
0.00105968592181
0.00126548982127
0.00192084721295
0.00343128003109
0.00609235406951
0.00963226359938
0.0128098530186
0.0145417790318
0.0150534338293
0.015081168564
0.0149943593372
0.0148894633718
0.0147852880197
0.0146850590872
0.0145890931952
0.0144972152002
0.0144089470572
0.0143242940217
0.0142433404235
0.0141656349527
0.0140909952316
0.0140190143572
0.0139497454873
0.0138833352741
0.013819144934
0.0137572902962
0.0136979600656
0.0136404952265
0.0135847677216
0.0135312665975
0.0134799576145
0.0134302260562
0.0133819930316
0.0133357980882
0.0132916522943
0.0132489821689
0.0132077703396
0.0131682344596
0.0131306533633
0.0130951093418
0.0130610714263
0.0130285903192
0.0129979595368
0.0129690870365
0.0129419230577
0.0129168269301
0.0128939016782
0.0128726162586
0.0128530089214
0.0128353251049
0.0128194265611
0.0128052277621
0.0127927583013
0.0127821355208
0.0127796777912
0.00101999409774
0.00101999409774
0.00101999409774
0.00101999409774
0.00101999409774
0.00101999409774
0.00101999409774
0.00101999409774
0.00101999409775
0.0010199940979
0.00101999410611
0.00101999454278
0.00102001714281
0.00102106787191
0.00103299899915
0.00112212041432
0.00149545975515
0.00249738122766
0.00451126127659
0.00767379040421
0.0112222032993
0.0137734054253
0.0148275716001
0.0150222093251
0.0149583846801
0.0148446325238
0.0147265171808
0.014612310256
0.0145031864737
0.0143990398943
0.0142995797695
0.0142044884391
0.0141135186817
0.0140264607504
0.013943057997
0.0138631214825
0.0137861537746
0.0137121969135
0.0136413903322
0.0135730645917
0.0135073325539
0.0134443345632
0.0133833871934
0.013324682176
0.0132684859746
0.0132141618375
0.0131615544083
0.0131111478337
0.013062964464
0.0130164275913
0.0129714741371
0.0129286712392
0.0128880114353
0.0128488469001
0.0128112017372
0.0127754457112
0.0127416089946
0.0127100055679
0.0126806001197
0.0126527047392
0.0126263581503
0.0126019494258
0.0125794896752
0.0125589856755
0.0125404088055
0.0125236879006
0.0125091132159
0.0124966861174
0.0124857643798
0.0124817161415
0.00101999409774
0.00101999409774
0.00101999409774
0.00101999409774
0.00101999409774
0.00101999409774
0.00101999409774
0.00101999409774
0.00101999409776
0.00101999409907
0.001019994168
0.00101999771021
0.00102017994934
0.00102328874964
0.00105575756007
0.00124899028131
0.00187837177851
0.00334217839125
0.00594188797101
0.00944485695055
0.0126405504308
0.0144048930249
0.0149151280019
0.0149186571895
0.0148039617339
0.014672283017
0.0145430191081
0.0144194852423
0.0143018681725
0.0141901303731
0.0140837325591
0.0139820905696
0.0138850848328
0.0137921469617
0.0137032337503
0.0136183723093
0.0135370468641
0.0134590667206
0.0133840352056
0.0133119645845
0.0132429747752
0.0131764441071
0.0131124476721
0.013051176777
0.0129920302024
0.0129351300514
0.0128806681475
0.0128280646181
0.0127772665354
0.0127288023389
0.0126826650717
0.0126382330554
0.0125954456875
0.0125545377856
0.0125158693838
0.0124795350725
0.0124448933673
0.01241190731
0.0123808341225
0.0123516088413
0.0123246478047
0.0123000757656
0.0122772125792
0.0122559837961
0.0122366534241
0.0122191815582
0.0122035869605
0.0121898863814
0.012178061975
0.0121724890375
0.00101999409774
0.00101999409774
0.00101999409774
0.00101999409774
0.00101999409774
0.00101999409774
0.00101999409774
0.00101999409774
0.00101999409792
0.0010199941072
0.00101999459372
0.00102001941323
0.00102112126892
0.00103350683893
0.0011248149925
0.0015038947851
0.00251500188893
0.00453743480406
0.00769552170218
0.0112130582562
0.0137112211026
0.0147107540263
0.0148615279184
0.0147631839374
0.014620108927
0.0144755965303
0.0143368621326
0.0142052579016
0.0140803587643
0.0139614907591
0.0138484028801
0.0137407079215
0.0136380732276
0.013540145294
0.0134466808461
0.0133574107876
0.0132720241818
0.0131899905061
0.0131113533575
0.013036223302
0.0129641852864
0.0128950309457
0.0128283486976
0.0127640332897
0.0127024892855
0.0126436501902
0.0125868759181
0.01253237223
0.0124803869251
0.012430292295
0.0123820313184
0.0123361173004
0.0122925095626
0.0122506071207
0.0122104981965
0.0121725637662
0.0121367247952
0.012103144557
0.0120716995099
0.0120417996173
0.0120137114479
0.011987903723
0.011964205239
0.0119423662793
0.011922283007
0.0119043539514
0.0118887071812
0.0118747156837
0.0118623349682
0.0118553445758
0.00101999409774
0.00101999409774
0.00101999409774
0.00101999409774
0.00101999409774
0.00101999409774
0.00101999409774
0.00101999409777
0.00101999409968
0.00101999419878
0.00101999919861
0.00102024992674
0.00102420174854
0.00106238284974
0.0012771505139
0.00194922029711
0.00348351442807
0.00615411336276
0.00965822976677
0.0127423029396
0.0143576718669
0.0147693426625
0.014720098905
0.0145704515182
0.0144102884495
0.0142556246032
0.0141085952983
0.0139695699509
0.0138378591969
0.0137126671386
0.013593997165
0.0134812193327
0.0133736789467
0.0132712127625
0.0131735039366
0.0130802852021
0.0129909662893
0.0129055015951
0.0128240057292
0.0127460406107
0.0126713502208
0.0125994355471
0.0125304047712
0.0124644419126
0.0124008963878