/*--------------------------------*- C++ -*----------------------------------*\
| =========                 |                                                 |
| \\      /  F ield         | foam-extend: Open Source CFD                    |
|  \\    /   O peration     | Version:     4.1                                |
|   \\  /    A nd           | Web:         http://www.foam-extend.org         |
|    \\/     M anipulation  |                                                 |
\*---------------------------------------------------------------------------*/
FoamFile
{
    version     2.0;
    format      ascii;
    class       volScalarField;
    location    "0.001";
    object      T;
}
// * * * * * * * * * * * * * * * * * * * * * * * * * * * * * * * * * * * * * //

dimensions      [0 0 0 1 0 0 0];

internalField   nonuniform List<scalar> 
8400
(
226.836296604
226.836296604
226.836296604
226.836296604
226.836296604
226.836296604
226.836296604
226.836296604
226.836296604
226.836296604
226.836296604
226.836296604
226.836296604
226.836296604
226.836296604
226.836296604
226.836296605
226.836296656
226.836299547
226.836456909
226.845106398
226.956466134
1456.53739192
5189.44412305
9933.34068486
13164.4121647
15095.5171025
16385.1573453
17114.0233012
17434.759586
17542.5539951
17572.9116331
17582.2998761
17586.3128652
17588.9199813
17591.1055528
17593.1378984
17595.1293045
17597.1105298
17599.1075899
17601.1456532
17603.2451889
17605.4284142
17607.7164174
17610.1269035
17612.669156
17615.3470622
17618.1707598
17621.1959414
17623.6015884
17626.9638529
17630.4231117
17634.0111334
17637.7222981
17641.5397899
17645.4349809
17649.3749823
17653.3247262
17657.2437842
17661.0831456
17664.821052
17668.3957897
17671.7604023
17674.869593
17677.6754994
17680.1337883
17682.2109876
17683.8833021
17685.1527928
17692.9142574
226.8362966
226.8362966
226.8362966
226.8362966
226.8362966
226.8362966
226.8362966
226.8362966
226.8362966
226.8362966
226.8362966
226.8362966
226.8362966
226.8362966
226.8362966
226.8362966
226.836296604
226.836296833
226.836309594
226.83701934
226.858348062
300.495051214
2629.34306633
6009.86132388
11520.153465
14013.0589477
15701.870075
16773.1345628
17326.4043394
17542.8893127
17608.7312317
17629.5185244
17638.3110559
17644.5455878
17650.1531544
17655.5181926
17661.5583061
17666.7217256
17671.8524246
17676.9189106
17681.9213581
17686.8737701
17691.7866411
17696.6848903
17701.5736657
17706.4569067
17711.3440778
17716.2795252
17721.2533046
17726.268879
17731.3153459
17736.3869815
17741.4791829
17746.5600134
17751.6186877
17756.642749
17761.6060736
17766.4678832
17771.1641042
17775.6404123
17779.9026549
17783.9269936
17787.6807604
17791.1002621
17794.1197159
17796.7011772
17798.8457311
17800.5505898
17801.8210179
17808.1514592
226.836296598
226.836296598
226.836296598
226.836296598
226.836296598
226.836296598
226.836296598
226.836296598
226.836296598
226.836296598
226.836296598
226.836296598
226.836296598
226.836296598
226.836296598
226.836296598
226.836296622
226.83629796
226.836371522
226.840490058
226.905681576
816.461073075
4570.82605922
8396.47612321
12722.7224907
14819.2238087
16244.3816809
17083.4285547
17467.288312
17599.5846606
17637.5330263
17650.041182
17656.9125271
17662.4712367
17668.4611395
17673.4980488
17678.4987964
17683.443856
17688.334819
17693.1704287
17697.9681759
17702.7422509
17707.5110493
17712.2825642
17717.060246
17721.851679
17726.660822
17731.4675445
17737.1090538
17742.0156187
17747.0132523
17752.0205826
17757.0169458
17761.9834124
17766.9074146
17771.8073179
17776.653595
17781.3552331
17785.8317279
17790.0678996
17794.1116619
17797.9922199
17801.626875
17804.8728833
17807.5824477
17809.9246484
17811.2186342
17813.6566179
17814.8377432
17820.2469002
226.836296597
226.836296597
226.836296597
226.836296597
226.836296597
226.836296597
226.836296597
226.836296597
226.836296597
226.836296597
226.836296597
226.836296597
226.836296597
226.836296597
226.836296597
226.836296598
226.836296683
226.836301469
226.836562215
226.850721584
227.017933102
2148.64530303
5574.44561927
10804.3537076
13606.4867409
15428.7961187
16623.8378107
17267.9689027
17531.808854
17613.657708
17637.9128807
17647.4060703
17653.7624481
17659.3243419
17664.5480895
17670.344502
17675.2140291
17680.0258093
17684.7570829
17689.4172604
17694.0223552
17698.5968954
17703.1619212
17707.7344502
17712.3227067
17716.9418526
17721.597537
17726.2919486
17731.0348132
17735.8224041
17740.6611145
17745.5173647
17750.3637598
17755.1875313
17759.9730431
17764.6935896
17769.3320892
17773.8420054
17778.170889
17782.3055214
17786.2089146
17789.8631355
17793.238024
17796.2841138
17798.9529424
17801.22242
17803.0921145
17804.5605357
17805.6301421
17810.2734818
226.836296596
226.836296596
226.836296596
226.836296596
226.836296596
226.836296596
226.836296596
226.836296596
226.836296596
226.836296596
226.836296596
226.836296596
226.836296596
226.836296596
226.836296596
226.836296603
226.836296982
226.836318048
226.837498134
226.865116319
377.089985176
2871.56144346
6320.31982749
11918.0792574
14270.3274196
15876.7391076
16873.3239146
17365.9985297
17548.8547246
17602.5817961
17620.4137598
17629.0418012
17635.7188483
17641.7688232
17647.4384198
17653.6319187
17658.8345497
17663.9405278
17668.9337699
17673.8177027
17678.6256411
17683.3833069
17688.1135211
17692.8305196
17697.5550228
17702.2934496
17707.0501451
17711.8355076
17716.6790927
17721.5480763
17726.4266169
17731.301982
17736.1973892
17741.0886849
17745.9295067
17750.6621661
17755.2557464
17759.7144845
17764.0388488
17768.1801489
17772.0648535
17775.6599985
17778.9390704
17781.9008671
17784.5251303
17786.7719287
17788.6079587
17790.0202597
17791.0178543
17795.2197972
226.836296595
226.836296595
226.836296595
226.836296595
226.836296595
226.836296595
226.836296595
226.836296595
226.836296595
226.836296595
226.836296595
226.836296595
226.836296595
226.836296595
226.836296596
226.836296619
226.83629797
226.836372368
226.840538157
226.906437613
821.769619997
4578.91393693
8387.93407906
12710.0594728
14794.3206788
16207.1901015
17033.1886507
17409.7698746
17538.6210869
17576.5254549
17590.4495847
17599.0959551
17606.3876217
17613.1486128
17619.6022317
17625.7829656
17631.7409272
17637.4687185
17643.7854366
17649.1733352
17654.4986577
17659.7448944
17664.9471755
17670.1365312
17675.3054499
17680.4637818
17685.6181181
17690.7653808
17695.9150965
17701.0549979
17706.1802665
17711.3454545
17716.5266498
17721.6851773
17726.7208697
17731.5675867
17736.2427396
17740.839796
17745.3545209
17749.6702876
17753.6222311
17757.207517
17760.5442779
17762.8195892
17765.5697698
17767.8713638
17769.7125054
17771.0872809
17771.9718379
17776.5659141
226.836296595
226.836296595
226.836296595
226.836296595
226.836296595
226.836296595
226.836296595
226.836296595
226.836296595
226.836296595
226.836296595
226.836296595
226.836296595
226.836296595
226.836296596
226.83629666
226.836300284
226.83649831
226.847357208
226.980884932
1742.95703
5352.60672357
10302.3908754
13331.0953236
15207.5517418
16447.367705
17129.0115306
17416.2597661
17509.2947121
17538.1706537
17550.876232
17560.0535163
17568.206225
17575.9231682
17583.2840027
17590.347412
17597.1551692
17603.7351519
17610.1158399
17616.3320584
17622.4466229
17628.4463599
17634.3571496
17640.1926551
17645.9697042
17651.7103114
17657.4199574
17663.1442704
17668.8474568
17674.5168103
17680.1347626
17685.6877359
17691.1995971
17696.6547176
17702.0443374
17707.2715984
17712.2944697
17717.1297988
17721.8135243
17726.2757023
17730.4404843
17734.2539175
17737.7114362
17740.8139289
17743.5433497
17745.8657053
17747.7476313
17749.17481
17750.1549398
17753.9183962
226.836296594
226.836296594
226.836296594
226.836296594
226.836296594
226.836296594
226.836296594
226.836296594
226.836296594
226.836296594
226.836296594
226.836296594
226.836296594
226.836296594
226.836296598
226.836296779
226.836306956
226.83687262
226.856460764
275.397168225
2527.28118437
5887.29560207
11306.3629824
13852.5760611
15544.6032975
16622.1745916
17180.4619535
17398.5669891
17467.1126488
17490.8916245
17503.4454337
17513.5614413
17522.8224609
17531.5947823
17539.9914771
17548.0642088
17555.8647232
17563.4045715
17570.7253339
17577.8925335
17584.8863952
17591.73607
17598.4690368
17605.0993494
17611.6524388
17618.1739513
17624.6357346
17631.0404713
17637.3791975
17643.653631
17649.8482757
17656.0030335
17662.0524014
17668.0002379
17673.8137404
17679.4668252
17684.9014006
17690.0913342
17695.0302605
17699.7027901
17704.084444
17708.2037916
17711.1657949
17714.495639
17717.3486357
17719.7654436
17721.7236849
17723.2019065
17724.205138
17727.8527678
226.836296594
226.836296594
226.836296594
226.836296594
226.836296594
226.836296594
226.836296594
226.836296594
226.836296594
226.836296594
226.836296594
226.836296594
226.836296594
226.836296594
226.836296603
226.836297121
226.836325647
226.837915813
226.871065745
437.422818383
3039.14905312
6515.38903674
12047.3467691
14297.7139913
15821.6720848
16748.3118802
17198.7668301
17363.9509991
17415.5059134
17435.6324709
17449.3699043
17460.4947624
17470.9540575
17480.9291494
17490.5106702
17499.7320142
17508.6593283
17517.3119419
17525.6993143
17533.8457024
17541.7912914
17549.5823812
17557.2237681
17564.7423841
17572.1936239
17579.5424849
17586.8046234
17594.0221349
17600.3701923
17607.4120961
17614.3037231
17621.0721508
17627.7040738
17634.1815297
17640.5057921
17646.6657292
17652.5910925
17658.2359941
17663.578245
17668.5953499
17673.2785979
17677.5994516
17681.5095403
17684.9684794
17687.9606528
17690.4839654
17692.5293728
17694.0919354
17695.1598408
17698.7145849
226.836296594
226.836296594
226.836296594
226.836296594
226.836296594
226.836296594
226.836296594
226.836296594
226.836296594
226.836296594
226.836296594
226.836296594
226.836296594
226.836296594
226.836296621
226.836298153
226.836382096
226.841041581
226.912494728
880.352943986
4649.41657478
8428.93911491
12672.6997859
14693.0867712
16048.8336831
16834.8183325
17192.2209543
17315.9904578
17356.3840013
17375.0127494
17388.6795987
17400.9706121
17412.6801437
17423.9001876
17434.6939221
17445.128089
17455.2155113
17465.0069097
17474.5148167
17483.768666
17492.7895775
17501.6434581
17510.3307938
17518.8365027
17527.1831255
17535.4045048
17543.5284283
17551.515721
17559.4387649
17567.2285136
17574.8666405
17582.3339259
17589.6168256
17596.7466935
17603.6669907
17610.3639151
17616.8410437
17622.2073588
17628.0325013
17633.4446743
17638.4727848
17643.0865933
17647.2468056
17650.9243797
17654.1038587
17656.7788995
17658.9404812
17660.5738296
17661.6877898
17665.1621797
226.836296594
226.836296594
226.836296594
226.836296594
226.836296594
226.836296594
226.836296594
226.836296594
226.836296594
226.836296594
226.836296594
226.836296594
226.836296594
226.836296595
226.836296663
226.836300489
226.836507784
226.84774309
226.985296153
1749.73808711
5340.02501345
10183.0264388
13213.4716243
15041.4589221
16232.562791
16887.1210643
17164.9985395
17258.3695993
17290.7936579
17308.9223832
17323.6217395
17337.203051
17350.1602032
17362.6811083
17374.7681788
17386.3916481
17397.6809481
17408.6667083
17419.3406448
17429.7270835
17439.862074
17449.7610882
17459.4913937
17469.0232377
17478.374183
17487.6120692
17495.8922113
17504.8009041
17513.5603414
17522.148659
17530.5479657
17538.7381768
17546.7786249
17554.5805979
17562.1109599
17569.3623891
17576.3084003
17582.9147907
17589.1305398
17594.9605396
17600.3685366
17605.3142079
17609.8256442
17612.9814723
17616.4369496
17619.2637732
17621.5159939
17623.2101484
17624.3685309
17627.7806262
226.836296593
226.836296593
226.836296593
226.836296593
226.836296593
226.836296593
226.836296593
226.836296593
226.836296593
226.836296593
226.836296593
226.836296593
226.836296594
226.836296597
226.836296794
226.836307755
226.836910529
226.85731685
278.288087557
2530.53223439
5868.19629871
11192.3527678
13708.684973
15343.5026332
16375.0467293
16909.5139371
17120.8572205
17191.2900137
17219.4607182
17237.8068347
17253.7296214
17268.7685161
17283.1116829
17296.9562043
17310.3637848
17323.2736476
17335.798422
17347.9793605
17359.9280843
17370.7588587
17382.0411475
17393.0508407
17403.8413382
17414.4254845
17424.7640729
17434.905089
17444.9234193
17454.7265236
17464.3015083
17473.7081389
17482.9815216
17491.2558132
17500.0113728
17508.4523943
17516.6028985
17524.4537522
17531.9815041
17539.1115909
17545.8078537
17552.0475812
17557.8220787
17563.1127599
17567.864573
17572.0520468
17575.6635637
17578.6802901
17581.0868798
17582.8815986
17584.07463
17587.3181157
226.836296593
226.836296593
226.836296593
226.836296593
226.836296593
226.836296593
226.836296593
226.836296593
226.836296593
226.836296593
226.836296593
226.836296593
226.836296593
226.836296604
226.836297205
226.836329923
226.838129776
226.874266004
460.294340152
3091.528574
6519.18680101
11967.0493066
14157.1916385
15606.6339981
16480.9702661
16905.3571753
17063.5300935
17117.519262
17143.1938694
17162.3226146
17179.6204345
17196.0394763
17211.9220742
17226.4894958
17241.2359782
17255.5477233
17269.366026
17282.7770685
17295.8506961
17308.6201551
17321.0662689
17333.2062486
17345.0860199
17356.7443113
17367.3856619
17378.5854052
17389.5051905
17400.1704311
17410.6746471
17420.9159313
17430.8832815
17440.6094353
17450.0492662
17459.3003693
17467.3425699
17475.8387119
17483.885339
17491.5341599
17498.7229
17505.4252567
17511.6020602
17517.2144733
17522.2556457
17526.7031714
17530.5308132
17533.7188903
17536.2533398
17538.1378382
17539.3681859
17542.4854897
226.836296593
226.836296593
226.836296593
226.836296593
226.836296593
226.836296593
226.836296593
226.836296593
226.836296593
226.836296593
226.836296593
226.836296593
226.836296594
226.83629663
226.836298642
226.836407348
226.842330267
226.927405136
1026.1422082
4816.88489264
8638.20111237
12636.3770074
14563.7800148
15829.7626683
16553.0141436
16879.1365465
16995.4164511
17038.6336282
17062.9849031
17083.1303226
17101.111231
17119.0543103
17136.2679497
17152.9641888
17169.0875587
17184.6866347
17199.8475549
17214.6292268
17228.2306192
17242.1494805
17255.7719558
17269.0641776
17282.0460933
17294.7551281
17307.1343483
17319.3022186
17330.4791335
17342.1589944
17353.533705
17364.61374
17375.4320156
17385.9251189
17396.0799712
17405.9536052
17415.4449091
17424.5840131
17432.3996083
17440.5505301
17448.1660842
17455.2960123
17461.8373241
17467.7970246
17473.145783
17477.8535274
17481.9002221
17485.26189
17487.9238299
17489.8842511
17491.1527173
17494.1478678
226.836296593
226.836296593
226.836296593
226.836296593
226.836296593
226.836296593
226.836296593
226.836296593
226.836296593
226.836296593
226.836296593
226.836296593
226.836296595
226.836296693
226.836302102
226.836589781
226.851705538
227.02812634
2115.7500426
5506.43616255
10430.2513053
13232.3781283
14926.1740364
16009.1315798
16589.9471246
16833.4504941
16918.6969423
16954.5087898
16978.7260964
17000.0018831
17020.1438213
17039.4312574
17058.1688764
17076.2885545
17093.1375708
17110.0455284
17126.4732298
17142.4924133
17158.0084882
17173.2039565
17187.2823988
17201.7051075
17215.7446848
17229.4720477
17242.9258779
17256.1182187
17268.9779361
17281.559598
17293.008664
17305.0165971
17316.619648
17327.8609649
17338.7351188
17349.2974402
17359.4210358
17369.0958276
17377.4795584
17386.1593945
17394.2525768
17401.7878496
17408.7167401
17415.019756
17420.6485695
17425.586953
17429.8205615
17433.3327986
17436.1151345
17438.1617012
17439.4772845
17442.3524738
226.836296593
226.836296593
226.836296593
226.836296593
226.836296593
226.836296593
226.836296593
226.836296593
226.836296593
226.836296593
226.836296593
226.836296593
226.8362966
226.836297001
226.836318686
226.837494554
226.865986353
360.005601449
2793.95456373
6133.62878643
11475.1282014
13765.8738079
15241.1582389
16142.2961108
16594.9612477
16771.2306645
16835.0010305
16867.1805841
16891.9410795
16914.6760693
16936.3196657
16956.5301932
16976.6730445
16996.1501981
17014.968988
17033.3073239
17050.3124437
17067.57316
17084.281319
17100.6470373
17116.5417957
17132.1588939
17146.539506
17161.3420221
17175.7853546
17189.89972
17203.6723372
17217.134925
17229.5346912
17242.3427264
17254.6977456
17266.6481543
17278.2469077
17289.4312991
17300.1703034
17310.4711844
17319.3394642
17328.5084517
17337.0535615
17345.0128218
17352.3234526
17358.9433173
17364.8326949
17370.0213564
17374.4518098
17378.129152
17381.0452323
17383.186007
17384.5469884
17387.2818979
226.836296593
226.836296593
226.836296593
226.836296593
226.836296593
226.836296593
226.836296593
226.836296593
226.836296593
226.836296593
226.836296593
226.836296593
226.836296622
226.836298177
226.836381089
226.84083653
226.910733426
802.898021788
4453.83425011
7470.95985859
12307.8920067
14245.9296014
15505.6950102
16233.8428101
16571.5650198
16696.9457096
16746.3280469
16776.7813446
16802.6071872
16826.0914753
16849.3578831
16871.6530419
16893.3203904
16913.5478441
16933.7833942
16953.3792923
16972.3657807
16990.8837152
17008.108621
17025.575291
17042.5589086
17059.1875294
17075.4368169
17090.4656529
17105.9297744
17120.9843691
17135.665544
17149.9938353
17164.012785
17176.6657863
17189.8740198
17202.5629253
17214.80633
17226.6375152
17238.0648403
17248.9632417
17258.29331
17267.8527611
17276.7770723
17285.1294104
17292.8523889
17299.8223206
17305.9553454
17311.3001502
17315.8981237
17319.7665441
17322.8508228
17325.0678624
17326.4438683
17329.0349744
226.836296593
226.836296593
226.836296593
226.836296593
226.836296593
226.836296593
226.836296593
226.836296593
226.836296593
226.836296593
226.836296593
226.836296595
226.836296695
226.836302154
226.836588855
226.85143653
227.024602264
2033.86522032
5432.12778121
10135.7085497
13011.2252714
14667.3963228
15715.9984356
16282.5844857
16524.1750595
16613.1279428
16654.3076641
16683.6364459
16710.672183
16736.3028598
16761.0022539
16784.1473207
16807.1230076
16829.435455
16850.2751703
16871.1718231
16891.4358366
16911.1102358
16929.6194558
16948.1628649
16966.2917531
16983.9561952
17001.1831951
17017.2010801
17033.6005872
17049.5146763
17065.0729462
17080.276666
17094.2458623
17108.5357476
17122.3701056
17135.7683365
17148.7106309
17161.1013186
17173.0317558
17183.5069717
17194.2198876
17204.2543803
17213.6255124
17222.3421172
17230.3766868
17237.6359141
17244.0313142
17249.5863531
17254.3977318
17257.4985505
17260.7012746
17263.0105351
17264.4426713
17266.8815876
226.836296593
226.836296593
226.836296593
226.836296593
226.836296593
226.836296593
226.836296593
226.836296593
226.836296593
226.836296593
226.836296593
226.836296602
226.836297104
226.836323802
226.837746471
226.869749162
387.067198196
2852.18115246
6161.49967267
11410.1192505
13624.2762816
15023.3556803
15867.6165302
16289.9467625
16457.2639344
16521.8882696
16558.9765816
16589.4490795
16617.8027045
16644.3049714
16670.4647258
16695.7284587
16719.4151539
16742.9648933
16765.8094715
16787.2143965
16808.7024667
16829.4994337
16849.8072015
16868.7375724
16887.9139052
16906.5951975
16924.7879217
16941.7524217
16959.032244
16975.8158305
16992.2106601
17008.1764471
17022.8699513
17037.9418511
17052.4423156
17066.4710107
17079.9671786
17092.9550285
17104.5001677
17116.3317396
17127.446142
17137.89446
17147.6788491
17156.7361048
17165.0374014
17172.5951326
17178.3416571
17184.1769515
17189.0937066
17193.159048
17196.3604776
17198.692281
17200.1202602
17202.3567853
226.836296593
226.836296593
226.836296593
226.836296593
226.836296593
226.836296593
226.836296593
226.836296593
226.836296593
226.836296593
226.836296593
226.836296639
226.836299118
226.836429103
226.843248153
226.938377084
1074.53534578
4809.58143671
8091.32001468
12345.810533
14157.0121682
15310.2710888
15963.6738906
16262.4953144
16376.039416
16426.9031733
16462.3726414
16493.1665817
16523.0259955
16551.6272722
16578.5746745
16605.2933232
16630.3476102
16655.1289152
16679.2322397
16701.7625732
16724.3967126
16746.2260081
16767.6240308
16787.5688979
16807.6824162
16827.3184929
16846.4656349
16864.2524229
16882.4263887
16900.0485105
16917.1838997
16933.1104633
16949.3258109
16965.017154
16980.1681695
16994.8682716
17008.0862071
17021.5799951
17034.4330167
17046.6476944
17058.1833865
17069.0015639
17079.191066
17087.6419657
17096.1565768
17103.829204
17110.7171139
17116.7182882
17121.8154707
17126.0112676
17129.2922306
17131.6523619
17133.1002205
17135.194403
226.836296593
226.836296593
226.836296593
226.836296593
226.836296593
226.836296593
226.836296593
226.836296593
226.836296593
226.836296593
226.836296597
226.836296828
226.836309145
226.836955932
226.858956175
272.101013877
2462.49292715
5718.63948354
10584.5917776
13111.0310988
14604.0961073
15524.2117236
16005.1994202
16206.9186003
16285.9295136
16329.6322083
16364.2770576
16396.925801
16427.5196662
16457.5444326
16485.8676927
16513.7619141
16540.7648317
16566.0872967
16591.3869208
16615.7942987
16638.763252
16661.7222697
16684.0005533
16704.9050113
16726.0565469
16746.5342371
16765.6554244
16785.122277
16804.0258238
16822.385791
16839.4395458
16856.8460172
16873.6437565
16889.9238979
16905.7722539
16920.0632706
16934.689598
16948.6186373
16961.9271976
16974.5457296
16986.5354948
16996.7688371
17007.2173568
17016.8017814
17025.5391955
17033.4219188
17040.431206
17046.5723883
17051.8243822
17056.202064
17058.585379
17060.9990563
17062.4261725
17064.3532653
226.836296592
226.836296592
226.836296592
226.836296592
226.836296592
226.836296592
226.836296592
226.836296592
226.836296593
226.836296593
226.83629662
226.83629805
226.836372551
226.840260013
226.90333376
689.188467016
3934.06963019
6740.81304308
11827.9297831
13752.6360508
14962.2240936
15663.5020209
15998.227551
16130.4433114
16189.6726433
16230.3902079
16265.7588262
16299.7286127
16331.6788896
16362.9676616
16392.5915062
16421.6467613
16449.8373426
16476.2574746
16502.6571493
16527.3490753
16552.047558
16576.0374978
16598.4972704
16621.0706325
16642.984809
16663.5714094
16684.3277136
16704.448179
16724.055096
16742.2898219
16760.8270282
16778.7662826
16796.2045916
16812.1635457
16828.4613867
16844.1108472
16859.1076746
16873.5691842
16886.3451319
16899.3285751
16911.5670244
16923.0542435
16933.714435
16943.5366922
16952.5352813
16959.656058
16966.8493863
16973.0738709
16978.3786434
16982.7363194
16986.1410154
16988.5620854
16990.0206615
16991.767043
226.836296592
226.836296592
226.836296592
226.836296592
226.836296592
226.836296592
226.836296592
226.836296592
226.836296592
226.836296595
226.836296737
226.836304292
226.836694909
226.855012849
234.515344174
2197.64255473
5479.6835654
9946.46024432
12754.9738837
14284.0216067
15228.4961771
15734.4449194
15953.3737961
16041.8910498
16091.4272683
16130.769426
16167.8593629
16202.4796976
16236.3952629
16268.2637101
16298.9648529
16329.2501404
16358.5521328
16385.9544946
16413.3356482
16439.0040381
16464.5857338
16489.4631975
16512.7496886
16536.119714
16558.8289658
16580.0706106
16601.5640282
16622.4575838
16641.8749428
16661.5015423
16680.6012836
16699.1747386
16716.2101913
16733.5442329
16750.1813816
16766.3059593
16780.8417081
16795.5857181
16809.5869441
16822.8529171
16835.33797
16847.1074095
16856.9892977
16867.0243828
16876.1246691
16884.331346
16891.6008258
16897.9247402
16903.2991054
16907.7001169
16911.1805155
16912.6185517
16914.1535286
16915.7329112
226.836296592
226.836296592
226.836296592
226.836296592
226.836296592
226.836296592
226.836296592
226.836296592
226.836296593
226.836296615
226.836297811
226.836359256
226.839519761
226.893589485
588.993642828
3398.68125036
6477.08206801
11538.1684247
13494.1550631
14697.6539125
15401.0586309
15742.6560399
15882.1092745
15946.6503927
15991.5834169
16031.3828916
16069.5749462
16105.4592099
16140.6064224
16173.6958575
16205.5137494
16236.8508242
16266.3182593
16295.4099687
16323.6908747
16350.1495144
16376.6179837
16401.4186598
16426.2200075
16450.3045445
16472.8944716
16495.6281014
16517.6917618
16538.2786972
16559.0987236
16579.3706765
16598.1399911
16617.1202229
16635.4609044
16653.2268394
16669.406208
16685.8448763
16701.566364
16716.5684663
16730.8623067
16743.3829819
16756.1716555
16768.0325143
16779.0742052
16789.205781
16798.4518378
16805.7066548
16813.1495105
16819.534333
16824.9385086
16829.3558862
16832.8093947
16835.2694051
16836.7499882
16838.1458387
226.836296592
226.836296592
226.836296592
226.836296592
226.836296592
226.836296592
226.836296592
226.836296592
226.836296595
226.836296756
226.836305165
226.836734011
226.85593949
236.842574028
2200.1465197
5465.51126829
9752.87297734
12588.3007201
14082.2666437
14997.7986056
15488.5283888
15704.451275
15794.7175478
15848.2997966
15892.0644116
15932.7059963
15972.0593922
16009.1005246
16044.6544848
16079.3831984
16112.1846969
16144.4813619
16174.7925458
16204.8895479
16233.0547897
16261.1890558
16287.4399525
16313.741911
16339.1744748
16363.043942
16387.0617387
16409.5148766
16432.1436432
16454.0090952
16475.4158468
16495.1154915
16515.2355933
16534.6195093
16552.3980456
16570.529614
16587.9091256
16604.648273
16619.6683515
16634.9157162
16649.3637266
16663.0413543
16675.9198471
16688.0406855
16698.1111459
16708.3508839
16717.5933549
16725.9068203
16733.3385186
16739.8368311
16745.3075552
16749.8090131
16752.1778924
16754.6703243
16756.1385283
16757.3735466
226.836296592
226.836296592
226.836296592
226.836296592
226.836296592
226.836296592
226.836296592
226.836296593
226.836296626
226.836298344
226.836385039
226.840734384
226.909465586
705.051212976
3868.07004065
6579.55387175
11512.4811408
13389.1912095
14526.5891656
15183.8071483
15501.3246886
15634.0300289
15700.5766649
15749.5846933
15793.6501866
15835.3132989
15875.6492837
15913.6671595
15950.1168965
15985.9055614
16019.4574483
16051.8175492
16083.6220012
16113.5950703
16143.3399818
16171.2190922
16198.935836
16225.8258582
16250.9708501
16276.2389342
16299.7864254
16323.5654655
16346.6439756
16368.0414918
16389.7710352
16410.8293973
16430.2307523
16449.9144752
16468.8967682
16487.3127687
16503.8827045
16520.8360547
16537.0046358
16552.5093504
16566.1020976
16579.9291351
16592.9120908
16605.0224518
16616.1776577
16626.5265069
16634.7297426
16643.1251837
16650.5787785
16657.0660708
16662.5330425
16666.9653591
16670.3847176
16672.8153834
16674.2749386
16675.3004367
226.836296592
226.836296592
226.836296592
226.836296592
226.836296592
226.836296592
226.836296592
226.836296599
226.836296939
226.836314162
226.837173225
226.863017231
286.063394497
2482.21280754
5657.68076521
10071.3728718
12617.6806766
14000.8072127
14831.8917649
15268.7859766
15461.0672698
15547.3567429
15603.7748896
15651.7852256
15696.6221749
15739.2568401
15779.905339
15819.4759287
15856.6402726
15892.3554794
15927.4041989
15960.3497261
15992.0853571
16023.4088511
16052.8838673
16082.105174
16109.5146517
16136.8171985
16163.3744441
16188.1135203
16213.0430402
16236.2135416
16259.5874116
16282.251149
16303.29851
16324.6015988
16345.189564
16365.138783
16383.3334911
16401.8480515
16419.6642494
16436.7300285
16451.9597953
16467.4752212
16482.1257528
16496.057181
16507.995757
16520.1755889
16531.3796026
16541.5986482
16550.8966904
16559.2563076
16566.7576361
16572.0468818
16577.527549
16581.9210637
16585.3128914
16587.7122346
16589.1393904
16589.945035
226.836296592
226.836296592
226.836296592
226.836296592
226.836296592
226.836296592
226.836296594
226.83629667
226.836300493
226.836487861
226.845502357
226.963555341
1164.92040378
4770.41165358
7176.18174745
11752.7045522
13427.2544533
14436.8475508
15004.1308464
15272.7795234
15389.0143796
15454.482484
15507.0024926
15555.1545991
15601.299354
15644.7189711
15686.1480826
15725.8130848
15763.7307368
15800.7018337
15835.4578896
15869.8157752
15901.9027688
15932.8732313
15963.5890112
15992.3439921
16020.9618541
16047.779071
16074.5718702
16100.6378025
16124.8064713
16149.2977112
16171.9625151
16194.8569462
16217.0879945
16237.5429532
16258.2490332
16278.2416658
16297.6308758
16315.1718742
16333.0016974
16350.0882718
16366.4881123
16380.8913665
16395.6269781
16409.514604
16422.4534277
16434.6341851
16444.6947353
16454.9366687
16464.1807607
16472.4897444
16479.8477342
16486.2383658
16491.6258776
16496.0916771
16498.2456087
16500.7078609
16502.1121566
16502.7053132
226.836296592
226.836296592
226.836296592
226.836296592
226.836296592
226.836296593
226.836296613
226.836297633
226.836347421
226.838754364
226.883946483
457.209040642
2935.4107099
6076.48902583
10726.6124497
12817.3410265
14012.4147037
14712.1425196
15067.1474127
15223.3783069
15302.8204701
15360.8270265
15412.6292317
15461.3117934
15507.5089892
15551.510335
15593.4888949
15634.3165548
15672.6749037
15709.4145809
15745.477346
15779.2392989
15811.7176314
15843.8700535
15873.883576
15903.8477716
15931.833633
15959.7647271
15985.8555117
16011.9877847
16037.4246442
16060.9915001
16084.8117164
16106.8188608
16129.1232683
16150.6110102
16171.505643
16190.5138606
16209.8913787
16228.616067
16245.2738291
16262.3403892
16278.6551345
16294.1685907
16307.6472742
16321.4653949
16334.3601291
16346.330371
16357.4197863
16367.6911172
16375.6824139
16383.943103
16391.1417174
16397.421522
16402.7271989
16407.0513815
16410.39217
16412.7514312
16414.1497137
16414.5487867
226.836296592
226.836296592
226.836296592
226.836296592
226.836296592
226.836296598
226.836296894
226.836311488
226.837016924
226.861239721
259.660601534
2311.70827416
5469.58068268
9243.17345955
12172.7671328
13568.6581527
14398.9608369
14846.0829559
15050.8798416
15148.0888355
15212.8900751
15268.7012134
15320.6579304
15369.7791577
15416.4628865
15460.9099832
15503.2769658
15543.6742533
15582.3139159
15620.1105307
15655.5685993
15689.5745412
15723.1526886
15754.542805
15785.7530766
15814.7900499
15843.8690129
15870.9107737
15898.134858
15923.363992
15948.7829415
15972.3863859
15996.2393096
16019.3058356
16040.5417577
16062.0739238
16082.9064207
16101.8647245
16121.1555894
16139.7076375
16157.5329149
16173.3306724
16189.5088825
16204.8871594
16219.3727894
16233.0920287
16244.5774761
16256.4987012
16267.4716519
16277.4842735
16286.5164807
16294.7917513
16300.5864013
16306.7984051
16311.9802086
16316.2226534
16319.5016977