/*--------------------------------*- C++ -*----------------------------------*\
| =========                 |                                                 |
| \\      /  F ield         | foam-extend: Open Source CFD                    |
|  \\    /   O peration     | Version:     4.1                                |
|   \\  /    A nd           | Web:         http://www.foam-extend.org         |
|    \\/     M anipulation  |                                                 |
\*---------------------------------------------------------------------------*/
FoamFile
{
    version     2.0;
    format      ascii;
    class       volVectorField;
    location    "0.001";
    object      U;
}
// * * * * * * * * * * * * * * * * * * * * * * * * * * * * * * * * * * * * * //

dimensions      [0 1 -1 0 0 0 0];

internalField   nonuniform List<vector> 
8400
(
(16999.9999899 5.99766645681e-09 8.35714561749e-11)
(16999.9999899 6.09222625115e-09 8.33385353651e-11)
(16999.9999899 6.18496491928e-09 8.31070720247e-11)
(16999.99999 6.27590961178e-09 8.28826824472e-11)
(16999.99999 6.36508828408e-09 8.26687225508e-11)
(16999.99999 6.45252796673e-09 8.2457479554e-11)
(16999.99999 6.53825607861e-09 8.22526555638e-11)
(16999.99999 6.62229990763e-09 8.20525183962e-11)
(16999.99999 6.70468583579e-09 8.1857113792e-11)
(16999.99999 6.78544109073e-09 8.16649588575e-11)
(16999.99999 6.8645917815e-09 8.14789047377e-11)
(16999.99999 6.94216445524e-09 8.12972604652e-11)
(16999.99999 7.01818550944e-09 8.11199304759e-11)
(16999.9999901 7.09268172412e-09 8.0929032539e-11)
(16999.9999901 7.16572858751e-09 7.98781037031e-11)
(16999.9999901 7.24016454068e-09 2.98863569471e-11)
(16999.9999901 7.47271818026e-09 -2.74143873215e-09)
(16999.9999892 1.61074112685e-08 -1.47702818815e-07)
(16999.9999399 4.60312767494e-07 -8.01633286455e-06)
(16999.997031 1.3147120705e-05 -0.000183191560509)
(16999.8405662 -4.26348277332e-05 -0.00198668523077)
(16985.1010544 -0.00858726904315 -0.0263253968276)
(16825.0145885 -1.64777409783 -0.104578172722)
(15668.75342 -10.096302387 -0.0944040546367)
(12599.9820607 -32.5529412042 0.00963000875805)
(8714.19410973 -49.2889472678 0.0420321314483)
(5385.55542194 -49.2527424621 0.0311131100255)
(3137.38868713 -30.7431504894 0.0197131007185)
(1897.20603147 1.16210341718 0.0114172419948)
(1356.4295738 38.5593105363 0.00616435337812)
(1167.82373286 75.2379808826 0.00352058361107)
(1102.18850248 108.787831195 0.00246329861714)
(1068.64878247 138.942671668 0.00205375006037)
(1041.63076845 165.966431074 0.00185170942255)
(1014.9959471 190.216558791 0.00171637108352)
(987.505171165 212.029410449 0.00160684972356)
(959.055003241 231.692804558 0.00150866190873)
(929.77463049 249.480534947 0.00141698965749)
(899.821315405 265.609715484 0.00133212288543)
(869.346091838 280.27374784 0.00125328377531)
(838.484046127 293.642449646 0.0011788578256)
(807.350663744 305.864847821 0.00110802116111)
(776.040701274 317.072027505 0.00104027644025)
(744.634571299 327.379509902 0.00097522185437)
(713.204817398 336.889537684 0.000912275167965)
(681.820094249 345.692949604 0.000850641356408)
(650.541467687 353.870042289 0.000789548691488)
(619.41463094 361.491288688 0.000729247041179)
(588.546111563 368.617577162 0.000669203630163)
(557.804262073 375.298593999 0.000605892777071)
(527.223534713 381.595521865 0.00053785511558)
(497.011441586 387.541124082 0.000466254320946)
(467.112536565 393.169933369 0.000389455786948)
(437.52852552 398.51039553 0.000304161016282)
(408.270768333 403.584534231 0.000207367749006)
(379.356851788 408.407703301 9.59476118828e-05)
(350.802984798 412.988851845 -3.35562841731e-05)
(322.620338887 417.332034898 -0.000185952252751)
(294.821873305 421.438035789 -0.000368347912711)
(267.420785863 425.30408169 -0.000589926044324)
(240.426973748 428.922301206 -0.000861208177017)
(213.841747467 432.279272735 -0.00119435310913)
(187.661374553 435.357789513 -0.00160485719561)
(161.893925192 438.139231791 -0.00211346501138)
(136.557757823 440.60463727 -0.0027472026902)
(111.669216624 442.734271719 -0.00353963942036)
(87.2357351494 444.50691516 -0.00453186916515)
(63.2618089332 445.900177105 -0.00577503387474)
(39.7910717244 446.891909753 -0.0073040678895)
(28.2500213726 447.453554764 -0.00871241629941)
(16999.9999923 4.1946925232e-09 3.98297641328e-12)
(16999.9999924 4.26184321545e-09 4.15449087116e-12)
(16999.9999924 4.32772866311e-09 4.32156420032e-12)
(16999.9999924 4.39236706343e-09 4.48349606129e-12)
(16999.9999924 4.45577671464e-09 4.64194509397e-12)
(16999.9999924 4.51797563217e-09 4.79623392027e-12)
(16999.9999924 4.57898130027e-09 4.94573995162e-12)
(16999.9999924 4.63881186869e-09 5.09129102266e-12)
(16999.9999924 4.69748507036e-09 5.23237569391e-12)
(16999.9999924 4.75501912797e-09 5.37074915058e-12)
(16999.9999924 4.81143161275e-09 5.50511132685e-12)
(16999.9999924 4.86674003737e-09 5.63601484854e-12)
(16999.9999924 4.92096237074e-09 5.76417700193e-12)
(16999.9999924 4.97412474885e-09 5.87218215905e-12)
(16999.9999924 5.02674149481e-09 5.08517005573e-12)
(16999.9999924 5.10747068411e-09 -4.56689097195e-11)
(16999.9999923 6.86252513227e-09 -2.86383725371e-09)
(16999.9999884 1.0358975128e-07 -1.47817183442e-07)
(16999.9997602 5.7400854915e-06 -8.07875894635e-06)
(16999.9870827 0.000295026293779 -0.000112430124256)
(16998.9729343 0.0259676780425 -0.00116076305411)
(16963.4897747 0.454493250972 -0.0138339183659)
(16608.2536452 3.41168711196 -0.0351520930493)
(14741.9733085 23.4831323045 -0.0192210374648)
(11110.197526 66.4625186099 0.00559374977191)
(7296.3848476 117.625935855 0.00973387223746)
(4336.57825268 166.579679643 0.00734644417372)
(2480.52632956 209.676587839 0.00489504116196)
(1537.63322516 246.290952063 0.00302731002087)
(1161.92872168 276.636307655 0.00185917930763)
(1032.61236267 302.56097832 0.00132048516258)
(978.549553056 325.887832127 0.00113976910711)
(943.218652129 347.399728219 0.00108749652184)
(912.136171075 367.385707521 0.00106586748984)
(882.101889615 385.98153592 0.00104672750923)
(852.357948667 403.309211055 0.00102401251659)
(822.925080481 419.460069864 0.000997502628719)
(793.797361056 434.518105696 0.000967875331474)
(764.813467457 448.576744589 0.000935792249748)
(736.051717334 461.714446264 0.000901861416599)
(707.540224603 474.005414652 0.000866534528257)
(679.293598651 485.518571862 0.000830145974903)
(651.318833548 496.317518693 0.000792939719687)
(623.625647868 506.460860312 0.000755039346356)
(596.233883461 516.002556338 0.000716390850533)
(569.165290673 524.992365532 0.000676784722727)
(542.429316805 533.475687136 0.000636082069655)
(516.022788378 541.49315803 0.000594138917671)
(489.946683472 549.076589119 0.000550193994602)
(464.213193483 556.264705996 0.000503228639239)
(438.845303191 563.086317759 0.000452825782197)
(413.865048254 569.563389445 0.000398569791767)
(389.279796417 575.716523987 0.000339416265775)
(365.083257366 581.562970466 0.000274088228974)
(341.258937174 587.115672176 0.000201355423886)
(317.789563679 592.382290847 0.00012007350749)
(294.674881595 597.365969782 2.90921920881e-05)
(271.949905597 602.067336298 -7.30125758675e-05)
(249.662798215 606.48569766 -0.00018791154755)
(227.819506345 610.618385469 -0.000317019928362)
(206.37373453 614.459134367 -0.000460986077832)
(185.273849642 617.997490464 -0.00061959264783)
(164.516020208 621.220992239 -0.000791954095375)
(144.148113186 624.118128183 -0.00097667376532)
(124.213502357 626.680689934 -0.00117115024952)
(104.704824571 628.901387022 -0.00136942815875)
(85.5762025245 630.7681138 -0.00156080410044)
(66.8010630642 632.260540932 -0.0017311351756)
(48.427012968 633.373452425 -0.00185575643483)
(39.4678186504 633.964826306 -0.00186430416836)
(16999.9999939 2.68132808531e-09 -1.8369555243e-12)
(16999.9999939 2.72562912916e-09 -1.80694724226e-12)
(16999.9999939 2.76913194436e-09 -1.77753558122e-12)
(16999.9999939 2.81184619326e-09 -1.74812637004e-12)
(16999.9999939 2.85378204929e-09 -1.71876412532e-12)
(16999.9999939 2.89494971308e-09 -1.6896353815e-12)
(16999.9999939 2.93535883704e-09 -1.66037762169e-12)
(16999.9999939 2.97501960352e-09 -1.63045926173e-12)
(16999.9999939 3.01394187516e-09 -1.60155826294e-12)
(16999.9999939 3.0521358954e-09 -1.57294953545e-12)
(16999.9999939 3.08961173541e-09 -1.54397928355e-12)
(16999.9999939 3.12637966608e-09 -1.51494178725e-12)
(16999.9999939 3.16245143397e-09 -1.4876396741e-12)
(16999.9999939 3.1979386763e-09 -1.48076870045e-12)
(16999.9999939 3.23870995362e-09 -2.61755348352e-12)
(16999.9999939 3.62168527042e-09 -6.72985539177e-11)
(16999.9999935 2.36998274275e-08 -3.61358983688e-09)
(16999.9999708 1.16272167415e-06 -1.84011947695e-07)
(16999.9986214 6.83732477594e-05 -9.75690878937e-06)
(16999.925757 0.00357306679032 -0.000103270936166)
(16993.0516906 0.346812571902 -0.00135474724011)
(16893.4626633 3.59810833887 -0.00928125680836)
(16054.6317799 31.8124482049 -0.0140057829161)
(13337.9578067 119.96456186 -0.00331042160296)
(9446.03840783 251.282116034 0.00336183353079)
(5903.91180859 373.867797665 0.00321683372958)
(3404.12725088 466.101245701 0.00229473764354)
(1963.22297027 527.17121008 0.00150384855743)
(1301.49105502 564.180102027 0.000945510154017)
(1058.95723225 586.821528213 0.000643849491202)
(970.572113616 603.408255638 0.00053683173882)
(923.909177021 617.907933617 0.000520099869475)
(887.400439178 631.479024638 0.000529539253641)
(853.708873549 644.410671746 0.000542682482118)
(821.402283751 656.772412604 0.000553616163423)
(790.123388786 668.587409515 0.000560988525282)
(759.59130807 679.90302447 0.000564810094447)
(729.812687174 690.725438839 0.000565409218827)
(700.760839135 701.076142653 0.000562927024428)
(672.408242815 710.975262129 0.000557545404929)
(644.723556851 720.442904548 0.000549518449699)
(617.669614886 729.499269484 0.000539042054715)
(591.212694669 738.163985462 0.000526263046746)
(565.338140228 746.455071611 0.000511276694387)
(540.04783296 754.388835736 0.000494123247008)
(515.334749945 761.981193746 0.000474782975661)
(491.16277864 769.248849867 0.000453175905906)
(467.410799452 776.212381754 0.000429161030105)
(444.219493093 782.877825541 0.000402527768633)
(421.595776422 789.252996349 0.00037300721955)
(399.384003008 795.357111769 0.000340292246949)
(377.670580331 801.193130558 0.000304047639749)
(356.454876818 806.766868768 0.000263914749619)
(335.699418443 812.084150896 0.000219527626533)
(315.330633846 817.151156771 0.000170535214963)
(295.28953033 821.971840132 0.000116624939642)
(275.611579649 826.543196965 5.75515841869e-05)
(256.411643185 830.855524054 -6.81678805798e-06)
(237.749080137 834.899908855 -7.64471810035e-05)
(219.53266493 838.674467156 -0.000151099690774)
(201.596076432 842.181621834 -0.000230287536377)
(183.868135816 845.418538483 -0.000313239775246)
(166.45965453 848.371700156 -0.000398863940395)
(149.581175091 851.020977962 -0.000485714436883)
(133.311261875 853.352900534 -0.000572003271632)
(117.413432337 855.372729901 -0.00065564160897)
(101.423839814 857.101594085 -0.00073434605288)
(85.517170427 858.528971228 -0.000805870611655)
(70.208489355 859.622500579 -0.00086691909672)
(62.9862879053 860.176651081 -0.000895482420549)
(16999.9999949 1.85416909785e-09 -1.16760073355e-12)
(16999.9999949 1.88518770259e-09 -1.17137163748e-12)
(16999.9999949 1.91565974418e-09 -1.17499673598e-12)
(16999.9999949 1.94559195639e-09 -1.17821599239e-12)
(16999.9999949 1.97499056818e-09 -1.18161415483e-12)
(16999.9999949 2.00386226167e-09 -1.18404615873e-12)
(16999.9999949 2.03221360588e-09 -1.18644708639e-12)
(16999.9999949 2.06005104447e-09 -1.18840107269e-12)
(16999.9999949 2.0873809155e-09 -1.19019820678e-12)
(16999.9999949 2.11420959711e-09 -1.19110000121e-12)
(16999.9999949 2.14054383007e-09 -1.19241157207e-12)
(16999.9999949 2.16639013517e-09 -1.19367199528e-12)
(16999.9999949 2.19176425406e-09 -1.19507873246e-12)
(16999.9999949 2.21720022878e-09 -1.23993981857e-12)
(16999.9999949 2.27294198157e-09 -3.70662926757e-12)
(16999.9999949 4.08537695585e-09 -1.40862223664e-10)
(16999.9999934 1.06040348672e-07 -7.30469296095e-09)
(16999.9999123 5.86376912228e-06 -3.9720469431e-07)
(16999.9951285 0.000341137377856 -8.38349839359e-06)
(16999.7344146 0.0181997437073 -9.38140148761e-05)
(16975.5798938 1.6758295227 -0.00152889674959)
(16742.6522012 15.4658615035 -0.00526350378146)
(15276.5603026 101.056489512 -0.00431621657404)
(11910.6836129 290.554813218 0.000152221257829)
(8019.18632114 510.635583815 0.00151949997527)
(4836.27619921 691.482319526 0.00120909108584)
(2757.19615378 811.796191532 0.000819047616287)
(1652.17750226 878.553876047 0.000516236951439)
(1190.07251722 908.795869101 0.000325028932811)
(1027.2047527 921.27286187 0.000242692750034)
(959.682454306 927.989745341 0.000228184824443)
(916.285447199 933.332296801 0.000239304386926)
(879.024220132 938.40505436 0.000256272654546)
(844.01876889 943.427142966 0.000273231622329)
(810.356122745 948.43898416 0.000288742817664)
(777.978727313 953.411781724 0.000302354579895)
(746.795277178 958.345507911 0.000313881681625)
(716.565016324 963.240959586 0.000323336209668)
(687.305172758 968.082356763 0.000330719662622)
(658.982695379 972.860032962 0.00033600129019)
(631.555500375 977.566721862 0.000339180463793)
(604.975288404 982.197433369 0.000340260939651)
(579.192264255 986.748550946 0.000339235423908)
(554.165218115 991.216504287 0.000336085113342)
(529.866123848 995.596931108 0.000330784889988)
(506.272009827 999.885383087 0.000323297639045)
(483.350851631 1004.07883056 0.000313538221788)
(461.057437311 1008.17625785 0.000301409321951)
(439.354339877 1012.17908944 0.000286859102839)
(418.221495563 1016.07832787 0.000269773978773)
(397.655522758 1019.87197801 0.000249973283041)
(377.652335289 1023.55507712 0.000227338317395)
(358.186421425 1027.12295611 0.000201800136153)
(339.220409367 1030.57108177 0.000173310676553)
(320.717386934 1033.89538501 0.000141840963086)
(302.648734814 1037.09288447 0.000107363969778)
(285.004932301 1040.15937609 6.99079846615e-05)
(267.798078236 1043.08592268 2.96535717916e-05)
(251.037429581 1045.86009107 -1.30501810485e-05)
(234.705483182 1048.4713842 -5.77760081438e-05)
(218.755601861 1050.91512992 -0.000104090917903)
(203.141723111 1053.18973976 -0.000151519274642)
(187.858474594 1055.29022021 -0.000199437184461)
(172.931759172 1057.20606005 -0.00024699109985)
(158.376189999 1058.92512692 -0.000293174013293)
(144.167068457 1060.44030156 -0.000337111092647)
(130.257998606 1061.75272433 -0.000378173035096)
(116.626953716 1062.86970888 -0.000415612051924)
(103.301244726 1063.78565224 -0.000448097362981)
(96.7891858531 1064.25488412 -0.000463158121975)
(16999.9999957 1.3608957033e-09 -5.62642363285e-13)
(16999.9999957 1.38381311334e-09 -5.68191247117e-13)
(16999.9999957 1.40633130988e-09 -5.73578982846e-13)
(16999.9999956 1.42845491687e-09 -5.78865891468e-13)
(16999.9999956 1.45018844544e-09 -5.83995791804e-13)
(16999.9999956 1.47153658466e-09 -5.89362913299e-13)
(16999.9999956 1.49250355789e-09 -5.94570809611e-13)
(16999.9999956 1.51309418519e-09 -5.99186167358e-13)
(16999.9999956 1.5333134463e-09 -6.03772741333e-13)
(16999.9999956 1.553165515e-09 -6.08609389098e-13)
(16999.9999956 1.57265533822e-09 -6.12975272781e-13)
(16999.9999956 1.59178838123e-09 -6.17320000451e-13)
(16999.9999956 1.61062306863e-09 -6.22889291518e-13)
(16999.9999956 1.6322719726e-09 -7.1355535456e-13)
(16999.9999956 1.83605251271e-09 -5.57225727664e-12)
(16999.9999955 1.25625934867e-08 -2.74507535792e-10)
(16999.9999891 6.25814877394e-07 -1.41094250461e-08)
(16999.9996108 3.67892178091e-05 -7.72492225612e-07)
(16999.9788634 0.00199678630725 -1.00268876307e-05)
(16998.1659165 0.176420373498 -0.000114493277654)
(16953.6037014 3.94065244942 -0.00120793820485)
(16497.5799419 40.7170675365 -0.00271133527484)
(14374.700559 211.933757558 -0.00119460766065)
(10616.8066563 512.816167775 0.000538437583107)
(6874.37773909 810.006209486 0.000707643979452)
(4056.00681078 1032.31720115 0.00051130486023)
(2333.20545999 1166.89145691 0.000328509511574)
(1485.14313328 1230.84068911 0.000196796584902)
(1156.46790571 1251.72347224 0.000123883883954)
(1039.0930607 1254.76180611 0.000100673776188)
(982.203493729 1252.93415933 0.000103522620909)
(940.262218478 1250.23393017 0.000114964575875)
(902.465916161 1247.60923922 0.000128265819605)
(866.606557466 1245.23679444 0.000141547191514)
(832.136082926 1243.14506505 0.000154283371395)
(799.070192238 1241.31324647 0.000166284354549)
(767.321432616 1239.71850851 0.000177415082021)
(736.640232032 1238.36894084 0.000187522528326)
(707.037625108 1237.23989115 0.000196460369959)
(678.48195651 1236.32443582 0.000204134047906)
(650.935371773 1235.60400055 0.00021048385743)
(624.353598138 1235.06450266 0.000215426638224)
(598.680374779 1234.69416239 0.000218867606185)
(573.86141765 1234.48195092 0.000220722065355)
(549.855751834 1234.41639496 0.000220909385851)
(526.633326729 1234.48545059 0.000219352866491)
(504.161343857 1234.67796299 0.00021597753923)
(482.398186074 1234.98441466 0.000210710234276)
(461.307352976 1235.39564104 0.000203480132817)
(440.867694715 1235.90158953 0.000194217898128)
(421.06229877 1236.49212174 0.000182865370178)
(401.85528498 1237.15798474 0.000169395773936)
(383.194300049 1237.89050241 0.00015382454466)
(365.046918933 1238.67936425 0.000136195727607)
(347.423363738 1239.51271257 0.000116556233813)
(330.344225571 1240.3803524 9.49630835561e-05)
(313.776837634 1241.27677885 7.15396704752e-05)
(297.6369646 1242.19751471 4.65157067402e-05)
(281.867289405 1243.13326381 2.01917862059e-05)
(266.487797876 1244.07008324 -7.12385419324e-06)
(251.543914804 1244.99581919 -3.51221959562e-05)
(237.033954829 1245.90433514 -6.34576795517e-05)
(222.901639538 1246.79314486 -9.1699889799e-05)
(209.088191356 1247.66097834 -0.000119339010729)
(195.581628753 1248.49471229 -0.000145897853173)
(182.399666802 1249.28919985 -0.000170963688726)
(169.546026186 1250.04062123 -0.000194127481833)
(157.004579334 1250.74807076 -0.000214990156375)
(144.76660264 1251.40997297 -0.000233093227304)
(138.734627111 1251.74602587 -0.000241538881021)
(16999.9999962 1.04104562008e-09 -2.76199449117e-13)
(16999.9999962 1.0586675898e-09 -2.79797944578e-13)
(16999.9999962 1.07598554417e-09 -2.83159470503e-13)
(16999.9999962 1.09300247371e-09 -2.85894802461e-13)
(16999.9999962 1.10972201771e-09 -2.89450270399e-13)
(16999.9999962 1.12614782029e-09 -2.92897647458e-13)
(16999.9999962 1.14228266153e-09 -2.95463354966e-13)
(16999.9999962 1.15812964224e-09 -2.98514775884e-13)
(16999.9999962 1.17369281625e-09 -3.01850994256e-13)
(16999.9999962 1.18897561275e-09 -3.04929855474e-13)
(16999.9999962 1.20398116318e-09 -3.08117046384e-13)
(16999.9999962 1.21871733083e-09 -3.10934760913e-13)
(16999.9999962 1.23342647053e-09 -3.16445790487e-13)
(16999.9999962 1.26194547247e-09 -4.50127846534e-13)
(16999.9999962 2.1008980701e-09 -7.72686181949e-12)
(16999.9999958 4.9625787827e-08 -4.06200483025e-10)
(16999.9999731 2.76537477291e-06 -2.06722870483e-08)
(16999.9986218 0.000163753491717 -1.10318600257e-06)
(16999.925416 0.00879076103452 -1.17409487513e-05)
(16993.0177129 0.831921930937 -0.000156173675062)
(16893.1368606 11.3944417047 -0.00104499297124)
(16053.7445151 99.0139718434 -0.00150695259527)
(13345.4619064 377.236848979 -0.000306089639928)
(9477.31104545 774.879814783 0.000387133922428)
(5963.34463853 1132.18907789 0.000347133648782)
(3486.53183933 1380.12017153 0.000236795919496)
(2061.37169291 1517.80064873 0.000146162944313)
(1408.76070948 1573.50297567 8.49663522883e-05)
(1169.10756106 1584.43923445 5.51575636321e-05)
(1078.54176672 1579.21440389 4.85004441942e-05)
(1027.44052242 1570.12587408 5.25373251995e-05)
(986.068748889 1560.53847487 6.00511115871e-05)
(947.849197313 1551.19889576 6.85907747472e-05)
(911.387584925 1542.25790682 7.74446784974e-05)
(876.362407484 1533.74155098 8.63559241318e-05)
(842.670764356 1525.65203933 9.51828841961e-05)
(810.246468738 1517.9738893 0.000103786395889)
(778.964698861 1510.71033268 0.000112011489252)
(748.937338403 1503.83215908 0.000119727606846)
(720.117613937 1497.32820327 0.000126820099761)
(692.28186758 1491.20958472 0.000133174458778)
(665.443550528 1485.45724567 0.000138678670907)
(639.555625024 1480.05979846 0.00014322547332)
(614.574354669 1475.00592912 0.000146713554369)
(590.462302765 1470.2839251 0.000149048445431)
(567.185155104 1465.88182563 0.00015014414846)
(544.708855127 1461.78788865 0.000149923647472)
(522.996488612 1457.99100322 0.000148318668342)
(502.020883372 1454.47987024 0.000145271956746)
(481.763345764 1451.24238072 0.000140741150169)
(462.180397108 1448.26972837 0.000134702043482)
(443.190250875 1445.55799105 0.000127152354781)
(424.72583596 1443.10177848 0.000118115301488)
(406.816377024 1440.88406959 0.000107640996874)
(389.566117376 1438.87881219 9.58064135862e-05)
(372.997602494 1437.07060197 8.27166330465e-05)
(356.945307604 1435.46806788 6.85080168124e-05)
(341.202920039 1434.08577441 5.33506193666e-05)
(325.768775473 1432.91330533 3.74471095152e-05)
(310.821348846 1431.91808622 2.10279650506e-05)
(296.464260753 1431.0769947 4.3455948386e-06)
(282.597828668 1430.39310896 -1.23304256222e-05)
(269.124085171 1429.87039179 -2.87178002623e-05)
(255.802153345 1429.53119679 -4.45270493949e-05)
(242.702626053 1429.36073186 -5.94734457852e-05)
(230.083801164 1429.32041122 -7.32827306332e-05)
(217.859087981 1429.41555367 -8.56995696697e-05)
(205.955481726 1429.65070431 -9.64954409556e-05)
(194.256682032 1430.03657936 -0.00010544624827)
(188.393461464 1430.24402488 -0.000109492232704)
(16999.9999967 8.20564735995e-10 -1.40816561854e-13)
(16999.9999967 8.34523941427e-10 -1.42539719524e-13)
(16999.9999967 8.48243922263e-10 -1.44394536988e-13)
(16999.9999967 8.61726692078e-10 -1.46430371169e-13)
(16999.9999967 8.74975183769e-10 -1.48408263327e-13)
(16999.9999967 8.87992259214e-10 -1.50908463842e-13)
(16999.9999967 9.00780370365e-10 -1.52849277314e-13)
(16999.9999967 9.13342032048e-10 -1.54426743482e-13)
(16999.9999967 9.25679767425e-10 -1.5591466247e-13)
(16999.9999967 9.37796721563e-10 -1.57869949789e-13)
(16999.9999967 9.49695349178e-10 -1.59644969622e-13)
(16999.9999967 9.61391889465e-10 -1.6146832308e-13)
(16999.9999967 9.73666583376e-10 -1.67040897053e-13)
(16999.9999967 1.03116394922e-09 -3.73612051126e-13)
(16999.9999966 3.69135280758e-09 -1.17231746962e-11)
(16999.9999956 1.55397244184e-07 -6.11612439829e-10)
(16999.9999348 8.77703368523e-06 -3.2471657738e-08)
(16999.9963403 0.000516057121209 -9.99944550034e-07)
(16999.8011663 0.027784806909 -1.05752096948e-05)
(16981.4565635 2.59964460836 -0.000165665576963)
(16794.7843458 26.7386498458 -0.000659702398534)
(15522.5981718 189.940948723 -0.000629033301862)
(12349.1569172 588.251845775 -2.16340176556e-05)
(8484.29639271 1070.33803175 0.000196252356335)
(5236.67452472 1469.9493868 0.000154541811713)
(3072.37643922 1729.60115549 0.000100794903893)
(1896.82665715 1861.56738172 5.98464103051e-05)
(1393.1769585 1905.55045651 3.447317993e-05)
(1213.18892721 1906.5178335 2.43385280799e-05)
(1138.59713411 1893.76013998 2.40206815232e-05)
(1090.52362447 1878.10912134 2.77562565612e-05)
(1049.19253987 1862.29146819 3.28409283746e-05)
(1010.40884699 1846.87717365 3.84696000646e-05)
(973.291354635 1831.97706441 4.4409333956e-05)
(937.626384959 1817.60978507 5.05528188175e-05)
(903.321020186 1803.77707266 5.68119728659e-05)
(870.31333567 1790.4756898 6.30922449891e-05)
(838.54673825 1777.70148883 6.92960999932e-05)
(807.97003138 1765.45220912 7.53323933472e-05)
(778.527899598 1753.71381902 8.11013484247e-05)
(750.16975959 1742.48311793 8.64944094666e-05)
(722.849749381 1731.75325398 9.14122612934e-05)
(696.518791819 1721.51768971 9.57619170964e-05)
(671.131928281 1711.76930647 9.9452385343e-05)
(646.647259815 1702.50031717 0.000102398487184)
(623.028564166 1693.7019094 0.000104522879024)
(600.238853138 1685.36559695 0.000105757585987)
(578.24916593 1677.48198208 0.000106045318382)
(557.035724004 1670.04149013 0.000105342029415)
(536.571890018 1663.03481969 0.000103620195296)
(516.827330339 1656.4534402 0.000100869892596)
(497.749582974 1650.29296635 9.70977103967e-05)
(479.276190087 1644.55240642 9.23282712937e-05)
(461.375673978 1639.22621883 8.66103675615e-05)
(444.072498575 1634.29857327 8.00216241795e-05)
(427.39728295 1629.75099881 7.26647294155e-05)
(411.310260051 1625.5774132 6.46585855955e-05)
(395.708496975 1621.78586166 5.61363489436e-05)
(380.524321019 1618.38137567 4.72525700338e-05)
(365.777531458 1615.35321987 3.81864996513e-05)
(351.517535717 1612.68287025 2.91326336781e-05)
(337.745210003 1610.35957497 2.02922563757e-05)
(324.401428714 1608.38780313 1.18685241585e-05)
(311.42346081 1606.76476858 4.0603753501e-06)
(298.796584551 1605.49554517 -2.93468477614e-06)
(286.534449843 1604.56971771 -8.92392437116e-06)
(274.640785024 1603.9800089 -1.37313306372e-05)
(263.099354005 1603.72324377 -1.72007713563e-05)
(251.894441751 1603.79700494 -1.91975095005e-05)
(246.299649427 1603.84678672 -1.98380097111e-05)
(16999.999997 6.61662891326e-10 -7.32111924997e-14)
(16999.999997 6.7297251444e-10 -7.44184852777e-14)
(16999.999997 6.84088543442e-10 -7.54735161627e-14)
(16999.999997 6.9501344135e-10 -7.66973149358e-14)
(16999.999997 7.0574919171e-10 -7.71212726076e-14)
(16999.999997 7.16298486552e-10 -7.8177836669e-14)
(16999.999997 7.26662993883e-10 -7.91807244121e-14)
(16999.999997 7.36845411117e-10 -8.03517441423e-14)
(16999.999997 7.46847334745e-10 -8.10864520579e-14)
(16999.999997 7.56671192082e-10 -8.21458765591e-14)
(16999.999997 7.66319119059e-10 -8.31779794025e-14)
(16999.999997 7.75838125068e-10 -8.41283380686e-14)
(16999.999997 7.8776147359e-10 -9.05512958817e-14)
(16999.999997 9.48192432697e-10 -3.89860449471e-13)
(16999.999997 9.67780432185e-09 -1.66144272819e-11)
(16999.9999939 5.1035572052e-07 -8.40613404539e-10)
(16999.999817 2.97129478255e-05 -4.52600041596e-08)
(16999.9898299 0.0016706366275 -7.07674979749e-07)
(16999.2355837 0.126194390634 -8.39877118543e-06)
(16967.0530559 5.2713568034 -0.000117755186311)
(16649.621521 53.8183233962 -0.000327389488369)
(14906.7153178 316.294822477 -0.00020361442572)
(11386.4098787 837.034615145 3.11847500164e-05)
(7612.30276952 1389.0128642 7.50868276016e-05)
(4648.00007535 1815.00222281 5.38264165723e-05)
(2770.80969508 2075.08132143 3.35025523515e-05)
(1807.75192106 2195.09986873 1.93788078016e-05)
(1419.17949576 2225.80271004 1.19770422099e-05)
(1279.98121506 2217.44089758 1.04090064054e-05)
(1215.19189711 2197.91293704 1.21342188385e-05)
(1168.64043192 2176.30881496 1.5146324132e-05)
(1126.98885685 2154.80604363 1.8671187014e-05)
(1087.51375361 2133.83343268 2.25078677172e-05)
(1049.63816845 2113.47360681 2.65941652648e-05)
(1013.21018308 2093.73980081 3.08870721347e-05)
(978.15494413 2074.63294551 3.53402958165e-05)
(944.414296464 2056.15112813 3.98996357048e-05)
(911.933473892 2038.29214639 4.45038767093e-05)
(880.656032897 2021.05425885 4.9086511129e-05)
(850.53505587 2004.43381119 5.35766586379e-05)
(821.523859361 1988.42744656 5.7900531925e-05)
(793.572677242 1973.03223609 6.1983700923e-05)
(766.63806595 1958.24453877 6.57528615739e-05)
(740.676142788 1944.06083286 6.913742109e-05)
(715.640353321 1930.4780409 7.20712854864e-05)
(691.492784135 1917.49209906 7.44947577748e-05)
(668.203393665 1905.09762925 7.63564203869e-05)
(645.745473505 1893.28918654 7.7615019201e-05)
(624.089361738 1882.06520365 7.82407275853e-05)
(603.203446552 1871.41387017 7.82173390924e-05)
(583.062010528 1861.33316094 7.75444086727e-05)
(563.64267816 1851.81810441 7.62371991473e-05)
(544.904813696 1842.86795527 7.43283740824e-05)
(526.785513976 1834.48657269 7.18694947972e-05)
(509.248942874 1826.67292117 6.89295823207e-05)
(492.306875819 1819.41672339 6.55935422897e-05)
(475.98300799 1812.70591216 6.19624398485e-05)
(460.255465448 1806.53816969 5.81548757995e-05)
(445.055132579 1800.9211594 5.43057330899e-05)
(430.316249898 1795.861979 5.05603218726e-05)
(416.022283187 1791.35766001 4.70685481005e-05)
(402.277093363 1787.38393321 4.39840299602e-05)
(388.923296288 1783.96178444 4.14651074221e-05)
(375.932499241 1781.09164368 3.96713401151e-05)
(363.437005679 1778.74671882 3.8757725241e-05)
(351.338480192 1776.93888299 3.88689261713e-05)
(339.641589422 1775.66151867 4.01366982567e-05)
(328.340371156 1774.9092703 4.26792774161e-05)
(317.406042444 1774.68033865 4.65883105584e-05)
(311.896231619 1774.58579097 4.88599481395e-05)
(16999.9999973 5.43234158356e-10 -3.80257988703e-14)
(16999.9999973 5.52566608613e-10 -3.85759038459e-14)
(16999.9999973 5.61739422844e-10 -3.9198596099e-14)
(16999.9999973 5.70754464619e-10 -3.97553888281e-14)
(16999.9999973 5.79613863444e-10 -4.02580443516e-14)
(16999.9999973 5.88319536347e-10 -4.09465989887e-14)
(16999.9999973 5.96874030087e-10 -4.13988877843e-14)
(16999.9999973 6.0527843765e-10 -4.22427189718e-14)
(16999.9999973 6.13534788243e-10 -4.28588237879e-14)
(16999.9999973 6.21644494126e-10 -4.37659792943e-14)
(16999.9999973 6.29612481737e-10 -4.44059935632e-14)
(16999.9999973 6.37584044221e-10 -4.4938384333e-14)
(16999.9999973 6.53867858513e-10 -5.08533071692e-14)
(16999.9999973 1.15536461534e-09 -3.28235302739e-13)
(16999.9999972 2.95107681279e-08 -1.46073935658e-11)
(16999.9999886 1.64598875715e-06 -6.99077463496e-10)
(16999.999483 9.66662499227e-05 -3.58268172386e-08)
(16999.971994 0.00523401921131 -4.03129114668e-07)
(16997.5155327 0.468044638065 -4.14904784691e-06)
(16945.9715075 9.57383324263 -3.40817162921e-05)
(16424.6272389 99.4978251374 -6.4404013452e-05)
(14190.919707 482.381788144 -3.29748335408e-05)
(10453.5640647 1117.25370036 -5.19780288107e-06)
(6840.66347923 1722.59698208 -2.59725478887e-06)
(4166.03130143 2160.96672252 -2.31384295224e-06)
(2554.46914397 2412.1652051 -9.99708489432e-07)
(1774.25861857 2515.95038243 8.76077524805e-07)
(1475.04506817 2533.19620059 2.91827020499e-06)
(1364.31101197 2516.50838557 4.94550942134e-06)
(1305.57579525 2491.07236575 6.99435263189e-06)
(1259.56959914 2464.21243017 9.17964192816e-06)
(1217.44997872 2437.59188023 1.15665251075e-05)
(1177.21338597 2411.58723435 1.41709270589e-05)