/*--------------------------------*- C++ -*----------------------------------*\
| =========                 |                                                 |
| \\      /  F ield         | foam-extend: Open Source CFD                    |
|  \\    /   O peration     | Version:     4.1                                |
|   \\  /    A nd           | Web:         http://www.foam-extend.org         |
|    \\/     M anipulation  |                                                 |
\*---------------------------------------------------------------------------*/
FoamFile
{
    version     2.0;
    format      ascii;
    class       volScalarField;
    location    "5e-05";
    object      mu;
}
// * * * * * * * * * * * * * * * * * * * * * * * * * * * * * * * * * * * * * //

dimensions      [1 -1 -1 0 0 0 0];

internalField   nonuniform List<scalar> 
4200
(
1.8491995123e-05
1.8491995123e-05
1.8491995123e-05
1.8491995123e-05
1.8491995123e-05
1.8491995123e-05
1.8491995123e-05
1.8491995123e-05
1.8491995123e-05
1.8491995123e-05
1.8491995123e-05
1.8491995123e-05
1.8491995123e-05
1.8491995123e-05
1.8491995123e-05
1.8491995123e-05
1.8491995123e-05
1.8491995123e-05
1.8491995123e-05
1.8491995123e-05
1.8491995123e-05
1.8491995123e-05
1.8491995123e-05
1.8491995123e-05
1.8491995123e-05
1.8491995123e-05
1.8491995123e-05
1.8491995123e-05
1.8491995123e-05
1.8491995123e-05
1.8491995123e-05
1.8491995123e-05
1.8491995123e-05
1.8491995123e-05
1.8491995123e-05
1.8491995123e-05
1.8491995123e-05
1.8491995123e-05
1.8491995123e-05
1.8491995123e-05
1.8491995123e-05
1.8491995123e-05
1.8491995123e-05
1.8491995123e-05
1.8491995123e-05
1.84919951231e-05
1.84919951239e-05
1.84919951318e-05
1.84919952061e-05
1.8491995886e-05
1.84920019607e-05
1.84920554913e-05
1.8492528933e-05
1.84968665645e-05
1.8539770303e-05
1.89919614951e-05
2.26305958776e-05
3.38845793047e-05
4.65551466056e-05
5.92608607427e-05
1.8491995123e-05
1.8491995123e-05
1.8491995123e-05
1.8491995123e-05
1.8491995123e-05
1.8491995123e-05
1.8491995123e-05
1.8491995123e-05
1.8491995123e-05
1.8491995123e-05
1.8491995123e-05
1.8491995123e-05
1.8491995123e-05
1.8491995123e-05
1.8491995123e-05
1.8491995123e-05
1.8491995123e-05
1.8491995123e-05
1.8491995123e-05
1.8491995123e-05
1.8491995123e-05
1.8491995123e-05
1.8491995123e-05
1.8491995123e-05
1.8491995123e-05
1.8491995123e-05
1.8491995123e-05
1.8491995123e-05
1.8491995123e-05
1.8491995123e-05
1.8491995123e-05
1.8491995123e-05
1.8491995123e-05
1.8491995123e-05
1.8491995123e-05
1.8491995123e-05
1.8491995123e-05
1.8491995123e-05
1.8491995123e-05
1.8491995123e-05
1.8491995123e-05
1.8491995123e-05
1.8491995123e-05
1.8491995123e-05
1.8491995123e-05
1.84919951231e-05
1.84919951239e-05
1.84919951318e-05
1.84919952063e-05
1.84919958877e-05
1.84920019744e-05
1.84920555978e-05
1.84925297877e-05
1.84968720218e-05
1.85398175895e-05
1.89924033788e-05
2.26332926015e-05
3.38880600429e-05
4.65548557977e-05
5.92568382331e-05
1.8491995123e-05
1.8491995123e-05
1.8491995123e-05
1.8491995123e-05
1.8491995123e-05
1.8491995123e-05
1.8491995123e-05
1.8491995123e-05
1.8491995123e-05
1.8491995123e-05
1.8491995123e-05
1.8491995123e-05
1.8491995123e-05
1.8491995123e-05
1.8491995123e-05
1.8491995123e-05
1.8491995123e-05
1.8491995123e-05
1.8491995123e-05
1.8491995123e-05
1.8491995123e-05
1.8491995123e-05
1.8491995123e-05
1.8491995123e-05
1.8491995123e-05
1.8491995123e-05
1.8491995123e-05
1.8491995123e-05
1.8491995123e-05
1.8491995123e-05
1.8491995123e-05
1.8491995123e-05
1.8491995123e-05
1.8491995123e-05
1.8491995123e-05
1.8491995123e-05
1.8491995123e-05
1.8491995123e-05
1.8491995123e-05
1.8491995123e-05
1.8491995123e-05
1.8491995123e-05
1.8491995123e-05
1.8491995123e-05
1.8491995123e-05
1.84919951231e-05
1.84919951239e-05
1.84919951319e-05
1.84919952067e-05
1.84919958904e-05
1.84920019936e-05
1.84920557048e-05
1.84925301553e-05
1.84968701155e-05
1.85397333783e-05
1.89907943559e-05
2.2617856816e-05
3.38426487656e-05
4.64915479088e-05
5.91814170997e-05
1.8491995123e-05
1.8491995123e-05
1.8491995123e-05
1.8491995123e-05
1.8491995123e-05
1.8491995123e-05
1.8491995123e-05
1.8491995123e-05
1.8491995123e-05
1.8491995123e-05
1.8491995123e-05
1.8491995123e-05
1.8491995123e-05
1.8491995123e-05
1.8491995123e-05
1.8491995123e-05
1.8491995123e-05
1.8491995123e-05
1.8491995123e-05
1.8491995123e-05
1.8491995123e-05
1.8491995123e-05
1.8491995123e-05
1.8491995123e-05
1.8491995123e-05
1.8491995123e-05
1.8491995123e-05
1.8491995123e-05
1.8491995123e-05
1.8491995123e-05
1.8491995123e-05
1.8491995123e-05
1.8491995123e-05
1.8491995123e-05
1.8491995123e-05
1.8491995123e-05
1.8491995123e-05
1.8491995123e-05
1.8491995123e-05
1.8491995123e-05
1.8491995123e-05
1.8491995123e-05
1.8491995123e-05
1.8491995123e-05
1.8491995123e-05
1.84919951231e-05
1.8491995124e-05
1.84919951319e-05
1.84919952072e-05
1.84919958944e-05
1.84920020205e-05
1.84920558573e-05
1.84925307609e-05
1.84968672147e-05
1.85396017777e-05
1.89883327642e-05
2.25940281562e-05
3.37719829477e-05
4.63940906573e-05
5.90651391609e-05
1.8491995123e-05
1.8491995123e-05
1.8491995123e-05
1.8491995123e-05
1.8491995123e-05
1.8491995123e-05
1.8491995123e-05
1.8491995123e-05
1.8491995123e-05
1.8491995123e-05
1.8491995123e-05
1.8491995123e-05
1.8491995123e-05
1.8491995123e-05
1.8491995123e-05
1.8491995123e-05
1.8491995123e-05
1.8491995123e-05
1.8491995123e-05
1.8491995123e-05
1.8491995123e-05
1.8491995123e-05
1.8491995123e-05
1.8491995123e-05
1.8491995123e-05
1.8491995123e-05
1.8491995123e-05
1.8491995123e-05
1.8491995123e-05
1.8491995123e-05
1.8491995123e-05
1.8491995123e-05
1.8491995123e-05
1.8491995123e-05
1.8491995123e-05
1.8491995123e-05
1.8491995123e-05
1.8491995123e-05
1.8491995123e-05
1.8491995123e-05
1.8491995123e-05
1.8491995123e-05
1.8491995123e-05
1.8491995123e-05
1.84919951231e-05
1.84919951231e-05
1.8491995124e-05
1.8491995132e-05
1.84919952079e-05
1.84919958997e-05
1.84920020596e-05
1.84920561017e-05
1.84925318043e-05
1.84968640069e-05
1.85394353032e-05
1.89851106502e-05
2.256246028e-05
3.3678758239e-05
4.62646930296e-05
5.8910761173e-05
1.8491995123e-05
1.8491995123e-05
1.8491995123e-05
1.8491995123e-05
1.8491995123e-05
1.8491995123e-05
1.8491995123e-05
1.8491995123e-05
1.8491995123e-05
1.8491995123e-05
1.8491995123e-05
1.8491995123e-05
1.8491995123e-05
1.8491995123e-05
1.8491995123e-05
1.8491995123e-05
1.8491995123e-05
1.8491995123e-05
1.8491995123e-05
1.8491995123e-05
1.8491995123e-05
1.8491995123e-05
1.8491995123e-05
1.8491995123e-05
1.8491995123e-05
1.8491995123e-05
1.8491995123e-05
1.8491995123e-05
1.8491995123e-05
1.8491995123e-05
1.8491995123e-05
1.8491995123e-05
1.8491995123e-05
1.8491995123e-05
1.8491995123e-05
1.8491995123e-05
1.8491995123e-05
1.8491995123e-05
1.8491995123e-05
1.8491995123e-05
1.8491995123e-05
1.8491995123e-05
1.8491995123e-05
1.8491995123e-05
1.84919951231e-05
1.84919951231e-05
1.8491995124e-05
1.84919951321e-05
1.84919952088e-05
1.84919959067e-05
1.84920021072e-05
1.84920563883e-05
1.84925329867e-05
1.84968596788e-05
1.85392267379e-05
1.89811638106e-05
2.25239049652e-05
3.35635017129e-05
4.61040873251e-05
5.87187270732e-05
1.8491995123e-05
1.8491995123e-05
1.8491995123e-05
1.8491995123e-05
1.8491995123e-05
1.8491995123e-05
1.8491995123e-05
1.8491995123e-05
1.8491995123e-05
1.8491995123e-05
1.8491995123e-05
1.8491995123e-05
1.8491995123e-05
1.8491995123e-05
1.8491995123e-05
1.8491995123e-05
1.8491995123e-05
1.8491995123e-05
1.8491995123e-05
1.8491995123e-05
1.8491995123e-05
1.8491995123e-05
1.8491995123e-05
1.8491995123e-05
1.8491995123e-05
1.8491995123e-05
1.8491995123e-05
1.8491995123e-05
1.8491995123e-05
1.8491995123e-05
1.8491995123e-05
1.8491995123e-05
1.8491995123e-05
1.8491995123e-05
1.8491995123e-05
1.8491995123e-05
1.8491995123e-05
1.8491995123e-05
1.8491995123e-05
1.8491995123e-05
1.8491995123e-05
1.8491995123e-05
1.8491995123e-05
1.8491995123e-05
1.84919951231e-05
1.84919951231e-05
1.8491995124e-05
1.84919951323e-05
1.84919952099e-05
1.8491995915e-05
1.84920021651e-05
1.84920567529e-05
1.84925344577e-05
1.84968556932e-05
1.85389863965e-05
1.89765220006e-05
2.24783003541e-05
3.34267051863e-05
4.5912358007e-05
5.84894588514e-05
1.8491995123e-05
1.8491995123e-05
1.8491995123e-05
1.8491995123e-05
1.8491995123e-05
1.8491995123e-05
1.8491995123e-05
1.8491995123e-05
1.8491995123e-05
1.8491995123e-05
1.8491995123e-05
1.8491995123e-05
1.8491995123e-05
1.8491995123e-05
1.8491995123e-05
1.8491995123e-05
1.8491995123e-05
1.8491995123e-05
1.8491995123e-05
1.8491995123e-05
1.8491995123e-05
1.8491995123e-05
1.8491995123e-05
1.8491995123e-05
1.8491995123e-05
1.8491995123e-05
1.8491995123e-05
1.8491995123e-05
1.8491995123e-05
1.8491995123e-05
1.8491995123e-05
1.8491995123e-05
1.8491995123e-05
1.8491995123e-05
1.8491995123e-05
1.8491995123e-05
1.8491995123e-05
1.8491995123e-05
1.8491995123e-05
1.8491995123e-05
1.8491995123e-05
1.8491995123e-05
1.8491995123e-05
1.8491995123e-05
1.84919951231e-05
1.84919951231e-05
1.8491995124e-05
1.84919951324e-05
1.84919952111e-05
1.84919959247e-05
1.84920022338e-05
1.84920571679e-05
1.84925361999e-05
1.84968515963e-05
1.85387106713e-05
1.89711889231e-05
2.24258958657e-05
3.32684213559e-05
4.56906643931e-05
5.82235398532e-05
1.8491995123e-05
1.8491995123e-05
1.8491995123e-05
1.8491995123e-05
1.8491995123e-05
1.8491995123e-05
1.8491995123e-05
1.8491995123e-05
1.8491995123e-05
1.8491995123e-05
1.8491995123e-05
1.8491995123e-05
1.8491995123e-05
1.8491995123e-05
1.8491995123e-05
1.8491995123e-05
1.8491995123e-05
1.8491995123e-05
1.8491995123e-05
1.8491995123e-05
1.8491995123e-05
1.8491995123e-05
1.8491995123e-05
1.8491995123e-05
1.8491995123e-05
1.8491995123e-05
1.8491995123e-05
1.8491995123e-05
1.8491995123e-05
1.8491995123e-05
1.8491995123e-05
1.8491995123e-05
1.8491995123e-05
1.8491995123e-05
1.8491995123e-05
1.8491995123e-05
1.8491995123e-05
1.8491995123e-05
1.8491995123e-05
1.8491995123e-05
1.8491995123e-05
1.8491995123e-05
1.8491995123e-05
1.8491995123e-05
1.84919951231e-05
1.84919951231e-05
1.8491995124e-05
1.84919951326e-05
1.84919952126e-05
1.84919959363e-05
1.84920023154e-05
1.84920576531e-05
1.84925383084e-05
1.8496846774e-05
1.85384076944e-05
1.89652712521e-05
2.23673436321e-05
3.30901092767e-05
4.54388221587e-05
5.79211135852e-05
1.8491995123e-05
1.8491995123e-05
1.8491995123e-05
1.8491995123e-05
1.8491995123e-05
1.8491995123e-05
1.8491995123e-05
1.8491995123e-05
1.8491995123e-05
1.8491995123e-05
1.8491995123e-05
1.8491995123e-05
1.8491995123e-05
1.8491995123e-05
1.8491995123e-05
1.8491995123e-05
1.8491995123e-05
1.8491995123e-05
1.8491995123e-05
1.8491995123e-05
1.8491995123e-05
1.8491995123e-05
1.8491995123e-05
1.8491995123e-05
1.8491995123e-05
1.8491995123e-05
1.8491995123e-05
1.8491995123e-05
1.8491995123e-05
1.8491995123e-05
1.8491995123e-05
1.8491995123e-05
1.8491995123e-05
1.8491995123e-05
1.8491995123e-05
1.8491995123e-05
1.8491995123e-05
1.8491995123e-05
1.8491995123e-05
1.8491995123e-05
1.8491995123e-05
1.8491995123e-05
1.8491995123e-05
1.8491995123e-05
1.84919951231e-05
1.84919951231e-05
1.84919951241e-05
1.84919951328e-05
1.84919952143e-05
1.84919959492e-05
1.84920024063e-05
1.84920582058e-05
1.84925406833e-05
1.84968429281e-05
1.85380725504e-05
1.89587770399e-05
2.23026948363e-05
3.28917637722e-05
4.51578349795e-05
5.75831795128e-05
1.8491995123e-05
1.8491995123e-05
1.8491995123e-05
1.8491995123e-05
1.8491995123e-05
1.8491995123e-05
1.8491995123e-05
1.8491995123e-05
1.8491995123e-05
1.8491995123e-05
1.8491995123e-05
1.8491995123e-05
1.8491995123e-05
1.8491995123e-05
1.8491995123e-05
1.8491995123e-05
1.8491995123e-05
1.8491995123e-05
1.8491995123e-05
1.8491995123e-05
1.8491995123e-05
1.8491995123e-05
1.8491995123e-05
1.8491995123e-05
1.8491995123e-05
1.8491995123e-05
1.8491995123e-05
1.8491995123e-05
1.8491995123e-05
1.8491995123e-05
1.8491995123e-05
1.8491995123e-05
1.8491995123e-05
1.8491995123e-05
1.8491995123e-05
1.8491995123e-05
1.8491995123e-05
1.8491995123e-05
1.8491995123e-05
1.8491995123e-05
1.8491995123e-05
1.8491995123e-05
1.8491995123e-05
1.8491995123e-05
1.84919951231e-05
1.84919951231e-05
1.84919951241e-05
1.8491995133e-05
1.84919952162e-05
1.84919959641e-05
1.84920025106e-05
1.84920588406e-05
1.84925434417e-05
1.84968387597e-05
1.85377191255e-05
1.89517540728e-05
2.22326080949e-05
3.26744517551e-05
4.4848308263e-05
5.72100656491e-05
1.8491995123e-05
1.8491995123e-05
1.8491995123e-05
1.8491995123e-05
1.8491995123e-05
1.8491995123e-05
1.8491995123e-05
1.8491995123e-05
1.8491995123e-05
1.8491995123e-05
1.8491995123e-05
1.8491995123e-05
1.8491995123e-05
1.8491995123e-05
1.8491995123e-05
1.8491995123e-05
1.8491995123e-05
1.8491995123e-05
1.8491995123e-05
1.8491995123e-05
1.8491995123e-05
1.8491995123e-05
1.8491995123e-05
1.8491995123e-05
1.8491995123e-05
1.8491995123e-05
1.8491995123e-05
1.8491995123e-05
1.8491995123e-05
1.8491995123e-05
1.8491995123e-05
1.8491995123e-05
1.8491995123e-05
1.8491995123e-05
1.8491995123e-05
1.8491995123e-05
1.8491995123e-05
1.8491995123e-05
1.8491995123e-05
1.8491995123e-05
1.8491995123e-05
1.8491995123e-05
1.8491995123e-05
1.8491995123e-05
1.84919951231e-05
1.84919951232e-05
1.84919951241e-05
1.84919951333e-05
1.84919952184e-05
1.84919959808e-05
1.84920026284e-05
1.84920595638e-05
1.84925465559e-05
1.84968353642e-05
1.85373368699e-05
1.89442476489e-05
2.21574184281e-05
3.24392328769e-05
4.45112190775e-05
5.68030845479e-05
1.8491995123e-05
1.8491995123e-05
1.8491995123e-05
1.8491995123e-05
1.8491995123e-05
1.8491995123e-05
1.8491995123e-05
1.8491995123e-05
1.8491995123e-05
1.8491995123e-05
1.8491995123e-05
1.8491995123e-05
1.8491995123e-05
1.8491995123e-05
1.8491995123e-05
1.8491995123e-05
1.8491995123e-05
1.8491995123e-05
1.8491995123e-05
1.8491995123e-05
1.8491995123e-05
1.8491995123e-05
1.8491995123e-05
1.8491995123e-05
1.8491995123e-05
1.8491995123e-05
1.8491995123e-05
1.8491995123e-05
1.8491995123e-05
1.8491995123e-05
1.8491995123e-05
1.8491995123e-05
1.8491995123e-05
1.8491995123e-05
1.8491995123e-05
1.8491995123e-05
1.8491995123e-05
1.8491995123e-05
1.8491995123e-05
1.8491995123e-05
1.8491995123e-05
1.8491995123e-05
1.8491995123e-05
1.8491995123e-05
1.84919951231e-05
1.84919951232e-05
1.84919951241e-05
1.84919951336e-05
1.84919952208e-05
1.84919959995e-05
1.84920027583e-05
1.8492060356e-05
1.84925501704e-05
1.84968336668e-05
1.85369415375e-05
1.8936309658e-05
2.20776649245e-05
3.21866585723e-05
4.41472575219e-05
5.63620070203e-05
1.8491995123e-05
1.8491995123e-05
1.8491995123e-05
1.8491995123e-05
1.8491995123e-05
1.8491995123e-05
1.8491995123e-05
1.8491995123e-05
1.8491995123e-05
1.8491995123e-05
1.8491995123e-05
1.8491995123e-05
1.8491995123e-05
1.8491995123e-05
1.8491995123e-05
1.8491995123e-05
1.8491995123e-05
1.8491995123e-05
1.8491995123e-05
1.8491995123e-05
1.8491995123e-05
1.8491995123e-05
1.8491995123e-05
1.8491995123e-05
1.8491995123e-05
1.8491995123e-05
1.8491995123e-05
1.8491995123e-05
1.8491995123e-05
1.8491995123e-05
1.8491995123e-05
1.8491995123e-05
1.8491995123e-05
1.8491995123e-05
1.8491995123e-05
1.8491995123e-05
1.8491995123e-05
1.8491995123e-05
1.8491995123e-05
1.8491995123e-05
1.8491995123e-05
1.8491995123e-05
1.8491995123e-05
1.8491995123e-05
1.84919951231e-05
1.84919951232e-05
1.84919951242e-05
1.84919951339e-05
1.84919952235e-05
1.849199602e-05
1.84920029036e-05
1.84920612339e-05
1.84925541773e-05
1.84968316383e-05
1.85365192929e-05
1.89279857677e-05
2.19936171624e-05
3.19178305722e-05
4.37570014472e-05
5.58882508868e-05
1.8491995123e-05
1.8491995123e-05
1.8491995123e-05
1.8491995123e-05
1.8491995123e-05
1.8491995123e-05
1.8491995123e-05
1.8491995123e-05
1.8491995123e-05
1.8491995123e-05
1.8491995123e-05
1.8491995123e-05
1.8491995123e-05
1.8491995123e-05
1.8491995123e-05
1.8491995123e-05
1.8491995123e-05
1.8491995123e-05
1.8491995123e-05
1.8491995123e-05
1.8491995123e-05
1.8491995123e-05
1.8491995123e-05
1.8491995123e-05
1.8491995123e-05
1.8491995123e-05
1.8491995123e-05
1.8491995123e-05
1.8491995123e-05
1.8491995123e-05
1.8491995123e-05
1.8491995123e-05
1.8491995123e-05
1.8491995123e-05
1.8491995123e-05
1.8491995123e-05
1.8491995123e-05
1.8491995123e-05
1.8491995123e-05
1.8491995123e-05
1.8491995123e-05
1.8491995123e-05
1.8491995123e-05
1.8491995123e-05
1.84919951231e-05
1.84919951232e-05
1.84919951242e-05
1.84919951343e-05
1.84919952265e-05
1.8491996043e-05
1.84920030632e-05
1.84920622148e-05
1.84925585703e-05
1.84968311255e-05
1.85360902042e-05
1.89193540298e-05
2.19058479246e-05
3.16338213326e-05
4.33416197901e-05
5.53827440806e-05
1.8491995123e-05
1.8491995123e-05
1.8491995123e-05
1.8491995123e-05
1.8491995123e-05
1.8491995123e-05
1.8491995123e-05
1.8491995123e-05
1.8491995123e-05
1.8491995123e-05
1.8491995123e-05
1.8491995123e-05
1.8491995123e-05
1.8491995123e-05
1.8491995123e-05
1.8491995123e-05
1.8491995123e-05
1.8491995123e-05
1.8491995123e-05
1.8491995123e-05
1.8491995123e-05
1.8491995123e-05
1.8491995123e-05
1.8491995123e-05
1.8491995123e-05
1.8491995123e-05
1.8491995123e-05
1.8491995123e-05
1.8491995123e-05
1.8491995123e-05
1.8491995123e-05
1.8491995123e-05
1.8491995123e-05
1.8491995123e-05
1.8491995123e-05
1.8491995123e-05
1.8491995123e-05
1.8491995123e-05
1.8491995123e-05
1.8491995123e-05
1.8491995123e-05
1.8491995123e-05
1.8491995123e-05
1.8491995123e-05
1.84919951231e-05
1.84919951232e-05
1.84919951243e-05
1.84919951347e-05
1.84919952299e-05
1.84919960686e-05
1.84920032413e-05
1.84920632988e-05
1.84925636613e-05
1.84968327464e-05
1.85356561533e-05
1.89104362772e-05
2.1814946796e-05
3.1336009967e-05
4.29022819476e-05
5.48465070317e-05
1.8491995123e-05
1.8491995123e-05
1.8491995123e-05
1.8491995123e-05
1.8491995123e-05
1.8491995123e-05
1.8491995123e-05
1.8491995123e-05
1.8491995123e-05
1.8491995123e-05
1.8491995123e-05
1.8491995123e-05
1.8491995123e-05
1.8491995123e-05
1.8491995123e-05
1.8491995123e-05
1.8491995123e-05
1.8491995123e-05
1.8491995123e-05
1.8491995123e-05
1.8491995123e-05
1.8491995123e-05
1.8491995123e-05
1.8491995123e-05
1.8491995123e-05
1.8491995123e-05
1.8491995123e-05
1.8491995123e-05
1.8491995123e-05
1.8491995123e-05
1.8491995123e-05
1.8491995123e-05
1.8491995123e-05
1.8491995123e-05
1.8491995123e-05
1.8491995123e-05
1.8491995123e-05
1.8491995123e-05
1.8491995123e-05
1.8491995123e-05
1.8491995123e-05
1.8491995123e-05
1.8491995123e-05
1.8491995123e-05
1.84919951231e-05
1.84919951232e-05
1.84919951243e-05
1.84919951352e-05
1.84919952336e-05
1.84919960964e-05
1.84920034363e-05
1.84920644886e-05
1.84925692563e-05
1.84968365917e-05
1.85352126131e-05
1.89013810624e-05
2.17217718255e-05
3.10261172553e-05
4.24410586692e-05
5.42810033041e-05
1.8491995123e-05
1.8491995123e-05
1.8491995123e-05
1.8491995123e-05
1.8491995123e-05
1.8491995123e-05
1.8491995123e-05
1.8491995123e-05
1.8491995123e-05
1.8491995123e-05
1.8491995123e-05
1.8491995123e-05
1.8491995123e-05
1.8491995123e-05
1.8491995123e-05
1.8491995123e-05
1.8491995123e-05
1.8491995123e-05
1.8491995123e-05
1.8491995123e-05
1.8491995123e-05
1.8491995123e-05
1.8491995123e-05
1.8491995123e-05
1.8491995123e-05
1.8491995123e-05
1.8491995123e-05
1.8491995123e-05
1.8491995123e-05
1.8491995123e-05
1.8491995123e-05
1.8491995123e-05
1.8491995123e-05
1.8491995123e-05
1.8491995123e-05
1.8491995123e-05
1.8491995123e-05
1.8491995123e-05
1.8491995123e-05
1.8491995123e-05
1.8491995123e-05
1.8491995123e-05
1.8491995123e-05
1.8491995123e-05
1.84919951231e-05
1.84919951232e-05
1.84919951244e-05
1.84919951357e-05
1.84919952376e-05
1.84919961273e-05
1.84920036488e-05
1.84920657991e-05
1.84925754412e-05
1.84968421559e-05
1.85347691259e-05
1.88921335105e-05
2.16263285701e-05
3.07040485679e-05
4.19577498574e-05
5.36865391236e-05
1.8491995123e-05
1.8491995123e-05
1.8491995123e-05
1.8491995123e-05
1.8491995123e-05
1.8491995123e-05
1.8491995123e-05
1.8491995123e-05
1.8491995123e-05
1.8491995123e-05
1.8491995123e-05
1.8491995123e-05
1.8491995123e-05
1.8491995123e-05
1.8491995123e-05
1.8491995123e-05
1.8491995123e-05
1.8491995123e-05
1.8491995123e-05
1.8491995123e-05
1.8491995123e-05
1.8491995123e-05
1.8491995123e-05
1.8491995123e-05
1.8491995123e-05
1.8491995123e-05
1.8491995123e-05
1.8491995123e-05
1.8491995123e-05
1.8491995123e-05
1.8491995123e-05
1.8491995123e-05
1.8491995123e-05
1.8491995123e-05
1.8491995123e-05
1.8491995123e-05
1.8491995123e-05
1.8491995123e-05
1.8491995123e-05
1.8491995123e-05
1.8491995123e-05
1.8491995123e-05
1.8491995123e-05
1.8491995123e-05
1.84919951231e-05
1.84919951232e-05
1.84919951244e-05
1.84919951362e-05
1.84919952421e-05
1.84919961611e-05
1.84920038837e-05
1.84920672135e-05
1.84925822558e-05
1.84968497928e-05
1.85343269454e-05
1.88827782814e-05
2.15291882331e-05
3.03717856839e-05
4.14541451035e-05
5.3065071401e-05
1.8491995123e-05
1.8491995123e-05
1.8491995123e-05
1.8491995123e-05
1.8491995123e-05
1.8491995123e-05
1.8491995123e-05
1.8491995123e-05
1.8491995123e-05
1.8491995123e-05
1.8491995123e-05
1.8491995123e-05
1.8491995123e-05
1.8491995123e-05
1.8491995123e-05
1.8491995123e-05
1.8491995123e-05
1.8491995123e-05
1.8491995123e-05
1.8491995123e-05
1.8491995123e-05
1.8491995123e-05
1.8491995123e-05
1.8491995123e-05
1.8491995123e-05
1.8491995123e-05
1.8491995123e-05
1.8491995123e-05
1.8491995123e-05
1.8491995123e-05
1.8491995123e-05
1.8491995123e-05
1.8491995123e-05
1.8491995123e-05
1.8491995123e-05
1.8491995123e-05
1.8491995123e-05
1.8491995123e-05
1.8491995123e-05
1.8491995123e-05
1.8491995123e-05
1.8491995123e-05
1.8491995123e-05
1.8491995123e-05
1.84919951231e-05
1.84919951232e-05
1.84919951245e-05
1.84919951368e-05
1.8491995247e-05
1.84919961981e-05
1.84920041389e-05
1.84920687902e-05
1.84925897922e-05
1.84968606755e-05
1.85338876746e-05
1.88733438754e-05
2.14307672103e-05
3.00300887721e-05
4.09309487475e-05
5.24166952492e-05
1.8491995123e-05
1.8491995123e-05
1.8491995123e-05
1.8491995123e-05
1.8491995123e-05
1.8491995123e-05
1.8491995123e-05
1.8491995123e-05
1.8491995123e-05
1.8491995123e-05
1.8491995123e-05
1.8491995123e-05
1.8491995123e-05
1.8491995123e-05
1.8491995123e-05
1.8491995123e-05
1.8491995123e-05
1.8491995123e-05
1.8491995123e-05
1.8491995123e-05
1.8491995123e-05
1.8491995123e-05
1.8491995123e-05
1.8491995123e-05
1.8491995123e-05
1.8491995123e-05
1.8491995123e-05
1.8491995123e-05
1.8491995123e-05
1.8491995123e-05
1.8491995123e-05
1.8491995123e-05
1.8491995123e-05
1.8491995123e-05
1.8491995123e-05
1.8491995123e-05
1.8491995123e-05
1.8491995123e-05
1.8491995123e-05
1.8491995123e-05
1.8491995123e-05
1.8491995123e-05
1.8491995123e-05
1.8491995123e-05
1.84919951231e-05
1.84919951232e-05
1.84919951246e-05
1.84919951375e-05
1.84919952524e-05
1.84919962387e-05
1.84920044181e-05
1.84920704796e-05
1.84925980874e-05
1.84968748161e-05
1.85334529073e-05
1.88638807336e-05
2.13315002907e-05
2.96803746791e-05
4.03892712617e-05
5.17427817224e-05
1.8491995123e-05
1.8491995123e-05
1.8491995123e-05
1.8491995123e-05
1.8491995123e-05
1.8491995123e-05
1.8491995123e-05
1.8491995123e-05
1.8491995123e-05
1.8491995123e-05
1.8491995123e-05
1.8491995123e-05
1.8491995123e-05
1.8491995123e-05
1.8491995123e-05
1.8491995123e-05
1.8491995123e-05
1.8491995123e-05
1.8491995123e-05
1.8491995123e-05
1.8491995123e-05
1.8491995123e-05
1.8491995123e-05
1.8491995123e-05
1.8491995123e-05
1.8491995123e-05
1.8491995123e-05
1.8491995123e-05
1.8491995123e-05
1.8491995123e-05
1.8491995123e-05
1.8491995123e-05
1.8491995123e-05
1.8491995123e-05
1.8491995123e-05
1.8491995123e-05
1.8491995123e-05
1.8491995123e-05
1.8491995123e-05
1.8491995123e-05
1.8491995123e-05
1.8491995123e-05
1.8491995123e-05
1.8491995123e-05
1.84919951231e-05
1.84919951232e-05
1.84919951247e-05
1.84919951382e-05
1.84919952583e-05
1.8491996283e-05
1.84920047214e-05
1.84920723391e-05
1.84926070283e-05
1.84968925733e-05
1.85330303167e-05
1.88544959466e-05
2.12321712092e-05
2.93243486259e-05
3.9832036729e-05
5.10458501142e-05
1.8491995123e-05
1.8491995123e-05
1.8491995123e-05
1.8491995123e-05
1.8491995123e-05
1.8491995123e-05
1.8491995123e-05
1.8491995123e-05
1.8491995123e-05
1.8491995123e-05
1.8491995123e-05
1.8491995123e-05
1.8491995123e-05
1.8491995123e-05
1.8491995123e-05
1.8491995123e-05
1.8491995123e-05
1.8491995123e-05
1.8491995123e-05
1.8491995123e-05
1.8491995123e-05
1.8491995123e-05
1.8491995123e-05
1.8491995123e-05
1.8491995123e-05
1.8491995123e-05
1.8491995123e-05
1.8491995123e-05
1.8491995123e-05
1.8491995123e-05
1.8491995123e-05
1.8491995123e-05
1.8491995123e-05
1.8491995123e-05
1.8491995123e-05
1.8491995123e-05
1.8491995123e-05
1.8491995123e-05
1.8491995123e-05
1.8491995123e-05
1.8491995123e-05
1.8491995123e-05
1.8491995123e-05
1.8491995123e-05
1.84919951231e-05
1.84919951232e-05
1.84919951248e-05
1.8491995139e-05
1.84919952649e-05
1.84919963315e-05
1.84920050555e-05
1.84920743666e-05
1.84926171147e-05
1.8496912946e-05
1.85326243745e-05
1.8845150221e-05
2.11330075546e-05
2.89630126866e-05
3.92590584363e-05
5.03259261785e-05
1.8491995123e-05
1.8491995123e-05
1.8491995123e-05
1.8491995123e-05
1.8491995123e-05
1.8491995123e-05
1.8491995123e-05
1.8491995123e-05
1.8491995123e-05
1.8491995123e-05
1.8491995123e-05
1.8491995123e-05
1.8491995123e-05
1.8491995123e-05
1.8491995123e-05
1.8491995123e-05
1.8491995123e-05
1.8491995123e-05
1.8491995123e-05
1.8491995123e-05
1.8491995123e-05
1.8491995123e-05
1.8491995123e-05
1.8491995123e-05
1.8491995123e-05
1.8491995123e-05
1.8491995123e-05
1.8491995123e-05
1.8491995123e-05
1.8491995123e-05
1.8491995123e-05
1.8491995123e-05
1.8491995123e-05
1.8491995123e-05
1.8491995123e-05
1.8491995123e-05
1.8491995123e-05
1.8491995123e-05
1.8491995123e-05
1.8491995123e-05
1.8491995123e-05
1.8491995123e-05
1.8491995123e-05
1.8491995123e-05
1.84919951231e-05
1.84919951232e-05
1.84919951249e-05
1.84919951399e-05
1.84919952721e-05
1.84919963849e-05
1.84920054168e-05
1.84920765779e-05
1.84926279755e-05
1.84969394345e-05
1.85322309883e-05
1.88359243941e-05
2.10343606036e-05
2.85982996288e-05
3.86734669287e-05
4.95860093698e-05
1.8491995123e-05
1.8491995123e-05
1.8491995123e-05
1.8491995123e-05
1.8491995123e-05
1.8491995123e-05
1.8491995123e-05
1.8491995123e-05
1.8491995123e-05
1.8491995123e-05
1.8491995123e-05
1.8491995123e-05
1.8491995123e-05
1.8491995123e-05
1.8491995123e-05
1.8491995123e-05
1.8491995123e-05
1.8491995123e-05
1.8491995123e-05
1.8491995123e-05
1.8491995123e-05
1.8491995123e-05
1.8491995123e-05
1.8491995123e-05
1.8491995123e-05
1.8491995123e-05
1.8491995123e-05
1.8491995123e-05
1.8491995123e-05
1.8491995123e-05
1.8491995123e-05
1.8491995123e-05
1.8491995123e-05
1.8491995123e-05
1.8491995123e-05
1.8491995123e-05
1.8491995123e-05
1.8491995123e-05
1.8491995123e-05
1.8491995123e-05
1.8491995123e-05
1.8491995123e-05
1.8491995123e-05
1.8491995123e-05
1.84919951231e-05
1.84919951233e-05
1.8491995125e-05
1.84919951409e-05
1.84919952799e-05
1.84919964426e-05
1.84920058101e-05
1.84920789519e-05
1.84926396596e-05
1.84969679203e-05
1.85318548817e-05
1.88268094381e-05
2.09365782792e-05
2.82302115491e-05
3.8075087776e-05
4.88254794514e-05
1.8491995123e-05
1.8491995123e-05
1.8491995123e-05
1.8491995123e-05
1.8491995123e-05
1.8491995123e-05
1.8491995123e-05
1.8491995123e-05
1.8491995123e-05
1.8491995123e-05
1.8491995123e-05
1.8491995123e-05
1.8491995123e-05
1.8491995123e-05
1.8491995123e-05
1.8491995123e-05
1.8491995123e-05
1.8491995123e-05
1.8491995123e-05
1.8491995123e-05
1.8491995123e-05
1.8491995123e-05
1.8491995123e-05
1.8491995123e-05
1.8491995123e-05
1.8491995123e-05
1.8491995123e-05
1.8491995123e-05
1.8491995123e-05
1.8491995123e-05
1.8491995123e-05
1.8491995123e-05
1.8491995123e-05
1.8491995123e-05
1.8491995123e-05
1.8491995123e-05
1.8491995123e-05
1.8491995123e-05
1.8491995123e-05
1.8491995123e-05
1.8491995123e-05
1.8491995123e-05
1.8491995123e-05
1.8491995123e-05
1.84919951231e-05
1.84919951233e-05
1.84919951251e-05
1.8491995142e-05
1.84919952885e-05
1.84919965063e-05
1.84920062407e-05
1.84920815429e-05
1.84926526587e-05
1.84970023942e-05
1.85314991041e-05
1.88178581409e-05
2.08399306772e-05
2.78604084309e-05
3.7465158942e-05
4.80466075797e-05
1.8491995123e-05
1.8491995123e-05
1.8491995123e-05
1.8491995123e-05
1.8491995123e-05
1.8491995123e-05
1.8491995123e-05
1.8491995123e-05
1.8491995123e-05
1.8491995123e-05
1.8491995123e-05
1.8491995123e-05
1.8491995123e-05
1.8491995123e-05
1.8491995123e-05
1.8491995123e-05
1.8491995123e-05
1.8491995123e-05
1.8491995123e-05
1.8491995123e-05
1.8491995123e-05
1.8491995123e-05
1.8491995123e-05
1.8491995123e-05
1.8491995123e-05
1.8491995123e-05
1.8491995123e-05
1.8491995123e-05
1.8491995123e-05
1.8491995123e-05
1.8491995123e-05
1.8491995123e-05
1.8491995123e-05
1.8491995123e-05
1.8491995123e-05
1.8491995123e-05
1.8491995123e-05
1.8491995123e-05
1.8491995123e-05
1.8491995123e-05
1.8491995123e-05
1.8491995123e-05
1.8491995123e-05
1.84919951231e-05
1.84919951231e-05
1.84919951233e-05
1.84919951253e-05
1.84919951432e-05
1.84919952979e-05
1.84919965758e-05
1.84920067069e-05
1.84920843551e-05
1.84926667462e-05
1.84970425486e-05
1.85311671636e-05
1.88091002724e-05
2.07448054443e-05
2.74903716889e-05
3.68465389944e-05
4.72505167093e-05
1.8491995123e-05
1.8491995123e-05
1.8491995123e-05
1.8491995123e-05
1.8491995123e-05
1.8491995123e-05
1.8491995123e-05
1.8491995123e-05
1.8491995123e-05
1.8491995123e-05
1.8491995123e-05
1.8491995123e-05
1.8491995123e-05
1.8491995123e-05
1.8491995123e-05
1.8491995123e-05
1.8491995123e-05
1.8491995123e-05
1.8491995123e-05
1.8491995123e-05
1.8491995123e-05
1.8491995123e-05
1.8491995123e-05
1.8491995123e-05
1.8491995123e-05
1.8491995123e-05
1.8491995123e-05
1.8491995123e-05
1.8491995123e-05
1.8491995123e-05
1.8491995123e-05
1.8491995123e-05
1.8491995123e-05
1.8491995123e-05
1.8491995123e-05
1.8491995123e-05
1.8491995123e-05
1.8491995123e-05
1.8491995123e-05
1.8491995123e-05
1.8491995123e-05
1.8491995123e-05
1.8491995123e-05
1.8491995123e-05
1.84919951231e-05
1.84919951233e-05
1.84919951254e-05
1.84919951445e-05
1.84919953083e-05
1.84919966511e-05
1.84920072156e-05
1.84920874074e-05
1.84926820215e-05
1.84970871321e-05
1.8530860182e-05
1.88005537623e-05
2.06514693807e-05
2.71213898819e-05
3.62200946905e-05
4.64401164371e-05
1.8491995123e-05
1.8491995123e-05
1.84919951231e-05
1.8491995123e-05
1.8491995123e-05
1.8491995123e-05
1.8491995123e-05
1.8491995123e-05
1.8491995123e-05
1.8491995123e-05