/*--------------------------------*- C++ -*----------------------------------*\
| =========                 |                                                 |
| \\      /  F ield         | foam-extend: Open Source CFD                    |
|  \\    /   O peration     | Version:     4.1                                |
|   \\  /    A nd           | Web:         http://www.foam-extend.org         |
|    \\/     M anipulation  |                                                 |
\*---------------------------------------------------------------------------*/
FoamFile
{
    version     2.0;
    format      ascii;
    class       volScalarField;
    location    "5e-05";
    object      rho;
}
// * * * * * * * * * * * * * * * * * * * * * * * * * * * * * * * * * * * * * //

dimensions      [1 -3 0 0 0 0 0];

internalField   nonuniform List<scalar> 
4200
(
0.0638471754007
0.0638471754007
0.0638471754007
0.0638471754007
0.0638471754007
0.0638471754006
0.0638471754006
0.0638471754006
0.0638471754006
0.0638471754006
0.0638471754006
0.0638471754006
0.0638471754006
0.0638471754006
0.0638471754006
0.0638471754006
0.0638471754006
0.0638471754006
0.0638471754006
0.0638471754006
0.0638471754006
0.0638471754006
0.0638471754006
0.0638471754006
0.0638471754006
0.0638471754006
0.0638471754006
0.0638471754006
0.0638471754006
0.0638471754006
0.0638471754006
0.0638471754006
0.0638471754006
0.0638471754006
0.0638471754006
0.0638471754006
0.0638471754006
0.0638471754006
0.0638471754006
0.0638471754006
0.0638471754006
0.0638471754006
0.0638471754006
0.0638471754006
0.0638471754007
0.0638471754016
0.0638471754106
0.0638471754987
0.0638471763264
0.0638471838585
0.0638472504042
0.0638478221191
0.0638525911888
0.0638907936807
0.0641737298405
0.0659323311887
0.0739565992209
0.0997046186311
0.16958610913
0.434901390496
0.0638471754008
0.0638471754008
0.0638471754008
0.0638471754008
0.0638471754008
0.0638471754008
0.0638471754008
0.0638471754008
0.0638471754008
0.0638471754008
0.0638471754008
0.0638471754008
0.0638471754008
0.0638471754008
0.0638471754008
0.0638471754008
0.0638471754008
0.0638471754008
0.0638471754008
0.0638471754008
0.0638471754008
0.0638471754008
0.0638471754008
0.0638471754008
0.0638471754008
0.0638471754008
0.0638471754008
0.0638471754008
0.0638471754008
0.0638471754008
0.0638471754008
0.0638471754008
0.0638471754008
0.0638471754008
0.0638471754008
0.0638471754008
0.0638471754008
0.0638471754008
0.0638471754008
0.0638471754008
0.0638471754008
0.0638471754008
0.0638471754008
0.0638471754008
0.0638471754009
0.0638471754018
0.0638471754109
0.0638471754992
0.063847176329
0.0638471838784
0.0638472505585
0.0638478232659
0.0638525994366
0.0638908509529
0.0641741204684
0.0659348796908
0.0739712726104
0.0997722193906
0.169830598937
0.43563310685
0.0638471754009
0.0638471754009
0.0638471754009
0.0638471754009
0.0638471754009
0.0638471754009
0.0638471754009
0.0638471754009
0.0638471754009
0.0638471754009
0.0638471754009
0.0638471754009
0.0638471754009
0.0638471754009
0.0638471754009
0.0638471754009
0.0638471754009
0.0638471754009
0.0638471754009
0.0638471754009
0.0638471754009
0.0638471754009
0.0638471754009
0.0638471754009
0.0638471754009
0.0638471754009
0.0638471754009
0.0638471754009
0.0638471754009
0.0638471754009
0.0638471754009
0.0638471754009
0.0638471754009
0.0638471754009
0.0638471754009
0.0638471754009
0.0638471754009
0.0638471754009
0.0638471754009
0.0638471754009
0.0638471754009
0.0638471754009
0.0638471754009
0.0638471754009
0.063847175401
0.0638471754019
0.063847175411
0.0638471754997
0.0638471763329
0.063847183908
0.063847250765
0.0638478245212
0.0638526051285
0.0638908569175
0.0641738887539
0.0659322083753
0.0739565585034
0.0997230470579
0.169703837954
0.435276686877
0.0638471754009
0.0638471754009
0.0638471754009
0.0638471754009
0.0638471754009
0.0638471754009
0.0638471754009
0.0638471754009
0.0638471754009
0.0638471754009
0.0638471754009
0.0638471754009
0.0638471754009
0.0638471754009
0.0638471754009
0.0638471754009
0.0638471754009
0.0638471754009
0.0638471754009
0.0638471754009
0.0638471754009
0.0638471754009
0.0638471754009
0.0638471754009
0.0638471754009
0.0638471754009
0.0638471754009
0.0638471754009
0.0638471754009
0.0638471754009
0.0638471754009
0.0638471754009
0.0638471754009
0.0638471754009
0.0638471754009
0.0638471754009
0.0638471754009
0.0638471754009
0.0638471754009
0.0638471754009
0.0638471754009
0.0638471754009
0.0638471754009
0.0638471754009
0.063847175401
0.0638471754019
0.0638471754111
0.0638471755004
0.0638471763387
0.0638471839525
0.0638472510772
0.0638478264175
0.0638526136806
0.0638908639091
0.0641735116023
0.0659279506259
0.0739329830456
0.0996428471545
0.169489784299
0.434660909161
0.0638471754009
0.0638471754009
0.0638471754009
0.0638471754009
0.0638471754009
0.0638471754009
0.0638471754009
0.0638471754009
0.0638471754009
0.0638471754009
0.0638471754009
0.0638471754009
0.0638471754009
0.0638471754009
0.0638471754009
0.0638471754009
0.0638471754009
0.0638471754009
0.0638471754009
0.0638471754009
0.0638471754009
0.0638471754009
0.0638471754009
0.0638471754009
0.0638471754009
0.0638471754009
0.0638471754009
0.0638471754009
0.0638471754009
0.0638471754009
0.0638471754009
0.0638471754009
0.0638471754009
0.0638471754009
0.0638471754009
0.0638471754009
0.0638471754009
0.0638471754009
0.0638471754009
0.0638471754009
0.0638471754009
0.0638471754009
0.0638471754009
0.0638471754009
0.063847175401
0.0638471754019
0.0638471754112
0.0638471755014
0.0638471763465
0.0638471840127
0.063847251499
0.0638478289683
0.0638526252269
0.0638908747871
0.0641730241166
0.0659223723424
0.0739019435962
0.0995368039749
0.169205076304
0.433834769317
0.0638471754009
0.0638471754009
0.0638471754009
0.0638471754009
0.0638471754009
0.0638471754009
0.0638471754009
0.0638471754009
0.0638471754009
0.0638471754009
0.0638471754009
0.0638471754009
0.0638471754009
0.0638471754009
0.0638471754009
0.0638471754009
0.0638471754009
0.0638471754009
0.0638471754009
0.0638471754009
0.0638471754009
0.0638471754009
0.0638471754009
0.0638471754009
0.0638471754009
0.0638471754009
0.0638471754009
0.0638471754009
0.0638471754009
0.0638471754009
0.0638471754009
0.0638471754009
0.0638471754009
0.0638471754009
0.0638471754009
0.0638471754009
0.0638471754009
0.0638471754009
0.0638471754009
0.0638471754009
0.0638471754009
0.0638471754009
0.0638471754009
0.0638471754009
0.063847175401
0.063847175402
0.0638471754114
0.0638471755026
0.0638471763564
0.063847184089
0.0638472520328
0.0638478322155
0.0638526401295
0.0638908923609
0.0641724449161
0.0659155716599
0.0738638146458
0.0994058164456
0.168851491858
0.432800784752
0.0638471754009
0.0638471754009
0.0638471754009
0.0638471754009
0.0638471754009
0.0638471754009
0.0638471754009
0.0638471754009
0.0638471754009
0.0638471754009
0.0638471754009
0.0638471754009
0.0638471754009
0.0638471754009
0.0638471754009
0.0638471754009
0.0638471754009
0.0638471754009
0.0638471754009
0.0638471754009
0.0638471754009
0.0638471754009
0.0638471754009
0.0638471754009
0.0638471754009
0.0638471754009
0.0638471754009
0.0638471754009
0.0638471754009
0.0638471754009
0.0638471754009
0.0638471754009
0.0638471754009
0.0638471754009
0.0638471754009
0.0638471754009
0.0638471754009
0.0638471754009
0.0638471754009
0.0638471754009
0.0638471754009
0.0638471754009
0.0638471754009
0.0638471754009
0.063847175401
0.063847175402
0.0638471754115
0.0638471755041
0.0638471763684
0.0638471841813
0.0638472526804
0.063847836161
0.0638526583441
0.0638909159676
0.0641717710044
0.0659075510178
0.0738186333902
0.0992501356801
0.168429544528
0.431558860556
0.0638471754009
0.0638471754009
0.0638471754009
0.0638471754009
0.0638471754009
0.0638471754009
0.0638471754009
0.0638471754009
0.0638471754009
0.0638471754009
0.0638471754009
0.0638471754009
0.0638471754009
0.0638471754009
0.0638471754009
0.0638471754009
0.0638471754009
0.0638471754009
0.0638471754009
0.0638471754009
0.0638471754009
0.0638471754009
0.0638471754009
0.0638471754009
0.0638471754009
0.0638471754009
0.0638471754009
0.0638471754009
0.0638471754009
0.0638471754009
0.0638471754009
0.0638471754009
0.0638471754009
0.0638471754009
0.0638471754009
0.0638471754009
0.0638471754009
0.0638471754009
0.0638471754009
0.0638471754009
0.0638471754009
0.0638471754009
0.0638471754009
0.0638471754009
0.063847175401
0.063847175402
0.0638471754117
0.0638471755058
0.0638471763826
0.0638471842906
0.0638472534466
0.0638478408415
0.0638526801366
0.0638909473689
0.0641710151626
0.0658983933789
0.0737667426761
0.099070479256
0.167940204168
0.430107120043
0.0638471754009
0.0638471754009
0.0638471754009
0.0638471754009
0.0638471754009
0.0638471754009
0.0638471754009
0.0638471754009
0.0638471754009
0.0638471754009
0.0638471754009
0.0638471754009
0.0638471754009
0.0638471754009
0.0638471754009
0.0638471754009
0.0638471754009
0.0638471754009
0.0638471754009
0.0638471754009
0.0638471754009
0.0638471754009
0.0638471754009
0.0638471754009
0.0638471754009
0.0638471754009
0.0638471754009
0.0638471754009
0.0638471754009
0.0638471754009
0.0638471754009
0.0638471754009
0.0638471754009
0.0638471754009
0.0638471754009
0.0638471754009
0.0638471754009
0.0638471754009
0.0638471754009
0.0638471754009
0.0638471754009
0.0638471754009
0.0638471754009
0.0638471754009
0.063847175401
0.063847175402
0.063847175412
0.0638471755078
0.0638471763992
0.0638471844179
0.0638472543389
0.0638478462967
0.0638527057584
0.0638909885817
0.0641701917169
0.0658881782786
0.0737084003329
0.0988673897124
0.16738389072
0.428444855232
0.0638471754009
0.0638471754009
0.0638471754009
0.0638471754009
0.0638471754009
0.0638471754009
0.0638471754009
0.0638471754009
0.0638471754009
0.0638471754009
0.0638471754009
0.0638471754009
0.0638471754009
0.0638471754009
0.0638471754009
0.0638471754009
0.0638471754009
0.0638471754009
0.0638471754009
0.0638471754009
0.0638471754009
0.0638471754009
0.0638471754009
0.0638471754009
0.0638471754009
0.0638471754009
0.0638471754009
0.0638471754009
0.0638471754009
0.0638471754009
0.0638471754009
0.0638471754009
0.0638471754009
0.0638471754009
0.0638471754009
0.0638471754009
0.0638471754009
0.0638471754009
0.0638471754009
0.0638471754009
0.0638471754009
0.0638471754009
0.0638471754009
0.0638471754009
0.063847175401
0.0638471754021
0.0638471754122
0.0638471755101
0.0638471764181
0.0638471845634
0.0638472553581
0.0638478525338
0.063852735237
0.0638910398662
0.0641693034476
0.0658769236324
0.0736437368021
0.098641357091
0.166761750969
0.426571082915
0.0638471754009
0.0638471754009
0.0638471754009
0.0638471754009
0.0638471754009
0.0638471754009
0.0638471754009
0.0638471754009
0.0638471754009
0.0638471754009
0.0638471754009
0.0638471754009
0.0638471754009
0.0638471754009
0.0638471754009
0.0638471754009
0.0638471754009
0.0638471754009
0.0638471754009
0.0638471754009
0.0638471754009
0.0638471754009
0.0638471754009
0.0638471754009
0.0638471754009
0.0638471754009
0.0638471754009
0.0638471754009
0.0638471754009
0.0638471754009
0.0638471754009
0.0638471754009
0.0638471754009
0.0638471754009
0.0638471754009
0.0638471754009
0.0638471754009
0.0638471754009
0.0638471754009
0.0638471754009
0.0638471754009
0.0638471754009
0.0638471754009
0.0638471754009
0.063847175401
0.0638471754021
0.0638471754125
0.0638471755127
0.0638471764397
0.0638471847286
0.0638472565152
0.0638478596221
0.063852768984
0.0638911034517
0.0641683675692
0.0658647442964
0.0735731909117
0.0983933435787
0.166074899387
0.424484322699
0.0638471754009
0.0638471754009
0.0638471754009
0.0638471754009
0.0638471754009
0.0638471754009
0.0638471754009
0.0638471754009
0.0638471754009
0.0638471754009
0.0638471754009
0.0638471754009
0.0638471754009
0.0638471754009
0.0638471754009
0.0638471754009
0.0638471754009
0.0638471754009
0.0638471754009
0.0638471754009
0.0638471754009
0.0638471754009
0.0638471754009
0.0638471754009
0.0638471754009
0.0638471754009
0.0638471754009
0.0638471754009
0.0638471754009
0.0638471754009
0.0638471754009
0.0638471754009
0.0638471754009
0.0638471754009
0.0638471754009
0.0638471754009
0.0638471754009
0.0638471754009
0.0638471754009
0.0638471754009
0.0638471754009
0.0638471754009
0.0638471754009
0.063847175401
0.0638471754011
0.0638471754021
0.0638471754129
0.0638471755156
0.0638471764639
0.0638471849141
0.0638472578109
0.0638478675546
0.0638528069973
0.0638911801657
0.0641673902985
0.065851684673
0.0734969562226
0.0981238452869
0.165324188326
0.422183374341
0.0638471754009
0.0638471754009
0.0638471754009
0.0638471754009
0.0638471754009
0.0638471754009
0.0638471754009
0.0638471754009
0.0638471754009
0.0638471754009
0.0638471754009
0.0638471754009
0.0638471754009
0.0638471754009
0.0638471754009
0.0638471754009
0.0638471754009
0.0638471754009
0.0638471754009
0.0638471754009
0.0638471754009
0.0638471754009
0.0638471754009
0.0638471754009
0.0638471754009
0.0638471754009
0.0638471754009
0.0638471754009
0.0638471754009
0.0638471754009
0.0638471754009
0.0638471754009
0.0638471754009
0.0638471754009
0.0638471754009
0.0638471754009
0.0638471754009
0.0638471754009
0.0638471754009
0.0638471754009
0.0638471754009
0.0638471754009
0.0638471754009
0.063847175401
0.0638471754011
0.0638471754022
0.0638471754133
0.063847175519
0.0638471764911
0.0638471851219
0.0638472592621
0.0638478764583
0.0638528499761
0.0638912733161
0.0641663945376
0.0658378772819
0.0734155291564
0.0978339316926
0.164510727801
0.419666214386
0.0638471754009
0.0638471754009
0.0638471754009
0.0638471754009
0.0638471754009
0.0638471754009
0.0638471754009
0.0638471754009
0.0638471754009
0.0638471754009
0.0638471754009
0.0638471754009
0.0638471754009
0.0638471754009
0.0638471754009
0.0638471754009
0.0638471754009
0.0638471754009
0.0638471754009
0.0638471754009
0.0638471754009
0.0638471754009
0.0638471754009
0.0638471754009
0.0638471754009
0.0638471754009
0.0638471754009
0.0638471754009
0.0638471754009
0.0638471754009
0.0638471754009
0.0638471754009
0.0638471754009
0.0638471754009
0.0638471754009
0.0638471754009
0.0638471754009
0.0638471754009
0.0638471754009
0.0638471754009
0.0638471754009
0.0638471754009
0.0638471754009
0.063847175401
0.0638471754011
0.0638471754022
0.0638471754137
0.0638471755227
0.0638471765213
0.0638471853528
0.0638472608723
0.0638478863274
0.0638528978726
0.0638913835386
0.0641653842985
0.0658233477062
0.0733290393385
0.0975240860654
0.163635587493
0.416932442518
0.0638471754009
0.0638471754009
0.0638471754009
0.0638471754009
0.0638471754009
0.0638471754009
0.0638471754009
0.0638471754009
0.0638471754009
0.0638471754009
0.0638471754009
0.0638471754009
0.0638471754009
0.0638471754009
0.0638471754009
0.0638471754009
0.0638471754009
0.0638471754009
0.0638471754009
0.0638471754009
0.0638471754009
0.0638471754009
0.0638471754009
0.0638471754009
0.0638471754009
0.0638471754009
0.0638471754009
0.0638471754009
0.0638471754009
0.0638471754009
0.0638471754009
0.0638471754009
0.0638471754009
0.0638471754009
0.0638471754009
0.0638471754009
0.0638471754009
0.0638471754009
0.0638471754009
0.0638471754009
0.0638471754009
0.0638471754009
0.0638471754009
0.063847175401
0.0638471754011
0.0638471754023
0.0638471754141
0.0638471755268
0.063847176555
0.0638471856088
0.0638472626536
0.0638478972441
0.0638529511698
0.0638915129821
0.0641643734781
0.065808193639
0.0732379115583
0.0971953745338
0.162700446323
0.413980541121
0.0638471754009
0.0638471754009
0.0638471754009
0.0638471754009
0.0638471754009
0.0638471754009
0.0638471754009
0.0638471754009
0.0638471754009
0.0638471754009
0.0638471754009
0.0638471754009
0.0638471754009
0.0638471754009
0.0638471754009
0.0638471754009
0.0638471754009
0.0638471754009
0.0638471754009
0.0638471754009
0.0638471754009
0.0638471754009
0.0638471754009
0.0638471754009
0.0638471754009
0.0638471754009
0.0638471754009
0.0638471754009
0.0638471754009
0.0638471754009
0.0638471754009
0.0638471754009
0.0638471754009
0.0638471754009
0.0638471754009
0.0638471754009
0.0638471754009
0.0638471754009
0.0638471754009
0.0638471754009
0.0638471754009
0.0638471754009
0.0638471754009
0.063847175401
0.0638471754011
0.0638471754023
0.0638471754147
0.0638471755313
0.0638471765922
0.0638471858915
0.0638472646183
0.0638479092832
0.0638530103208
0.0638916651229
0.0641633881529
0.0657925611399
0.0731426802607
0.0968489698726
0.161706523837
0.410807367792
0.0638471754009
0.0638471754009
0.0638471754009
0.0638471754009
0.0638471754009
0.0638471754009
0.0638471754009
0.0638471754009
0.0638471754009
0.0638471754009
0.0638471754009
0.0638471754009
0.0638471754009
0.0638471754009
0.0638471754009
0.0638471754009
0.0638471754009
0.0638471754009
0.0638471754009
0.0638471754009
0.0638471754009
0.0638471754009
0.0638471754009
0.0638471754009
0.0638471754009
0.0638471754009
0.0638471754009
0.0638471754009
0.0638471754009
0.0638471754009
0.0638471754009
0.0638471754009
0.0638471754009
0.0638471754009
0.0638471754009
0.0638471754009
0.0638471754009
0.0638471754009
0.0638471754009
0.0638471754009
0.0638471754009
0.0638471754009
0.0638471754009
0.063847175401
0.0638471754011
0.0638471754024
0.0638471754153
0.0638471755364
0.0638471766334
0.0638471862037
0.0638472667839
0.0638479225612
0.0638530760605
0.063891844701
0.0641624583783
0.0657766309989
0.073044067705
0.0964866498978
0.160656252967
0.407408435872
0.063847175401
0.0638471754009
0.0638471754009
0.0638471754009
0.0638471754009
0.0638471754009
0.0638471754009
0.0638471754009
0.0638471754009
0.0638471754009
0.0638471754009
0.0638471754009
0.0638471754009
0.0638471754009
0.0638471754009
0.0638471754009
0.0638471754009
0.0638471754009
0.0638471754009
0.0638471754009
0.0638471754009
0.0638471754009
0.0638471754009
0.0638471754009
0.0638471754009
0.0638471754009
0.0638471754009
0.0638471754009
0.0638471754009
0.0638471754009
0.0638471754009
0.0638471754009
0.0638471754009
0.0638471754009
0.0638471754009
0.0638471754009
0.0638471754009
0.0638471754009
0.0638471754009
0.0638471754009
0.0638471754009
0.0638471754009
0.0638471754009
0.063847175401
0.0638471754011
0.0638471754025
0.0638471754159
0.063847175542
0.0638471766787
0.0638471865465
0.0638472691563
0.0638479371
0.0638531484714
0.0638920512539
0.0641615809719
0.0657603769961
0.0729419966622
0.0961082558103
0.159549782083
0.403786145185
0.063847175401
0.063847175401
0.063847175401
0.063847175401
0.063847175401
0.063847175401
0.063847175401
0.063847175401
0.063847175401
0.063847175401
0.063847175401
0.063847175401
0.063847175401
0.063847175401
0.0638471754009
0.0638471754009
0.0638471754009
0.0638471754009
0.0638471754009
0.0638471754009
0.0638471754009
0.0638471754009
0.0638471754009
0.0638471754009
0.0638471754009
0.0638471754009
0.0638471754009
0.0638471754009
0.0638471754009
0.0638471754009
0.0638471754009
0.0638471754009
0.0638471754009
0.0638471754009
0.0638471754009
0.0638471754009
0.0638471754009
0.0638471754009
0.0638471754009
0.0638471754009
0.0638471754009
0.0638471754009
0.0638471754009
0.063847175401
0.0638471754011
0.0638471754025
0.0638471754166
0.0638471755481
0.0638471767287
0.0638471869228
0.0638472717535
0.0638479529911
0.0638532278634
0.0638922858796
0.0641607605997
0.0657438593999
0.0728368284811
0.0957149924857
0.15838939024
0.399938738395
0.063847175401
0.063847175401
0.063847175401
0.063847175401
0.063847175401
0.063847175401
0.0638471754009
0.0638471754009
0.0638471754009
0.063847175401
0.0638471754009
0.063847175401
0.063847175401
0.063847175401
0.063847175401
0.063847175401
0.063847175401
0.063847175401
0.0638471754009
0.0638471754009
0.0638471754009
0.0638471754009
0.0638471754009
0.0638471754009
0.0638471754009
0.0638471754009
0.0638471754009
0.0638471754009
0.0638471754009
0.0638471754009
0.0638471754009
0.0638471754009
0.0638471754009
0.0638471754009
0.0638471754009
0.0638471754009
0.0638471754009
0.0638471754009
0.0638471754009
0.0638471754009
0.0638471754009
0.0638471754009
0.0638471754009
0.063847175401
0.0638471754011
0.0638471754026
0.0638471754174
0.0638471755549
0.0638471767836
0.0638471873354
0.0638472745934
0.0638479703462
0.0638533149543
0.063892553138
0.064160025603
0.0657272112277
0.072728959336
0.0953075629042
0.15717564698
0.395865770439
0.0638471754009
0.0638471754009
0.063847175401
0.063847175401
0.063847175401
0.0638471754009
0.063847175401
0.063847175401
0.063847175401
0.063847175401
0.063847175401
0.063847175401
0.063847175401
0.063847175401
0.063847175401
0.063847175401
0.063847175401
0.063847175401
0.0638471754009
0.0638471754009
0.0638471754009
0.063847175401
0.0638471754009
0.0638471754009
0.0638471754009
0.0638471754009
0.0638471754009
0.0638471754009
0.0638471754009
0.0638471754009
0.0638471754009
0.0638471754009
0.0638471754009
0.0638471754009
0.0638471754009
0.0638471754009
0.0638471754009
0.0638471754009
0.0638471754009
0.0638471754009
0.0638471754009
0.0638471754009
0.0638471754009
0.063847175401
0.0638471754011
0.0638471754027
0.0638471754183
0.0638471755624
0.0638471768439
0.0638471877872
0.0638472776943
0.0638479892676
0.0638534102698
0.0638928553176
0.0641593875553
0.0657105164973
0.0726187792865
0.0948870267559
0.155910202749
0.391565228259
0.063847175401
0.063847175401
0.063847175401
0.063847175401
0.063847175401
0.063847175401
0.063847175401
0.063847175401
0.063847175401
0.063847175401
0.063847175401
0.063847175401
0.063847175401
0.063847175401
0.063847175401
0.063847175401
0.063847175401
0.063847175401
0.063847175401
0.063847175401
0.063847175401
0.063847175401
0.0638471754009
0.0638471754009
0.0638471754009
0.0638471754009
0.0638471754009
0.0638471754009
0.0638471754009
0.0638471754009
0.0638471754009
0.063847175401
0.063847175401
0.063847175401
0.063847175401
0.0638471754009
0.0638471754009
0.0638471754009
0.0638471754009
0.0638471754009
0.0638471754009
0.0638471754009
0.063847175401
0.063847175401
0.0638471754011
0.0638471754028
0.0638471754193
0.0638471755707
0.0638471769102
0.063847188282
0.0638472810783
0.0638480098876
0.0638535145256
0.0638931970713
0.0641588766697
0.0656939374987
0.0725069797099
0.0944552292497
0.154596027238
0.387032986061
0.063847175401
0.063847175401
0.063847175401
0.063847175401
0.063847175401
0.063847175401
0.063847175401
0.063847175401
0.063847175401
0.063847175401
0.063847175401
0.063847175401
0.063847175401
0.063847175401
0.063847175401
0.063847175401
0.063847175401
0.063847175401
0.063847175401
0.063847175401
0.063847175401
0.063847175401
0.063847175401
0.063847175401
0.063847175401
0.063847175401
0.063847175401
0.063847175401
0.063847175401
0.063847175401
0.063847175401
0.063847175401
0.063847175401
0.063847175401
0.063847175401
0.063847175401
0.0638471754009
0.0638471754009
0.0638471754009
0.0638471754009
0.0638471754009
0.0638471754009
0.063847175401
0.063847175401
0.0638471754011
0.063847175403
0.0638471754203
0.0638471755798
0.0638471769831
0.0638471888236
0.0638472847733
0.0638480323561
0.0638536284864
0.0638935812673
0.0641585055968
0.0656775418937
0.0723937976065
0.0940126530259
0.153233525787
0.382269403508
0.063847175401
0.063847175401
0.063847175401
0.063847175401
0.063847175401
0.063847175401
0.063847175401
0.063847175401
0.063847175401
0.063847175401
0.063847175401
0.063847175401
0.063847175401
0.063847175401
0.063847175401
0.063847175401
0.063847175401
0.063847175401
0.063847175401
0.063847175401
0.063847175401
0.063847175401
0.063847175401
0.063847175401
0.063847175401
0.063847175401
0.063847175401
0.063847175401
0.063847175401
0.063847175401
0.063847175401
0.0638471754009
0.0638471754009
0.0638471754009
0.0638471754009
0.0638471754009
0.0638471754009
0.0638471754009
0.063847175401
0.063847175401
0.063847175401
0.0638471754009
0.063847175401
0.063847175401
0.0638471754012
0.0638471754031
0.0638471754215
0.0638471755898
0.063847177063
0.0638471894156
0.0638472887973
0.0638480567731
0.0638537526128
0.0638940106304
0.0641582898846
0.0656614324847
0.072279716902
0.093560762719
0.151825462568
0.377271953003
0.063847175401
0.063847175401
0.063847175401
0.063847175401
0.063847175401
0.063847175401
0.063847175401
0.063847175401
0.063847175401
0.063847175401
0.063847175401
0.063847175401
0.063847175401
0.063847175401
0.063847175401
0.063847175401
0.063847175401
0.063847175401
0.063847175401
0.063847175401
0.063847175401
0.063847175401
0.063847175401
0.063847175401
0.063847175401
0.063847175401
0.063847175401
0.063847175401
0.063847175401
0.063847175401
0.063847175401
0.063847175401
0.063847175401
0.063847175401
0.0638471754009
0.0638471754009
0.0638471754009
0.063847175401
0.063847175401
0.063847175401
0.063847175401
0.063847175401
0.063847175401
0.063847175401
0.0638471754012
0.0638471754032
0.0638471754228
0.0638471756009
0.0638471771507
0.0638471900629
0.0638472931799
0.0638480833022
0.0638538876967
0.0638944878071
0.0641582378029
0.065645620366
0.0721647443694
0.0930994836563
0.150371836241
0.372043398114
0.063847175401
0.063847175401
0.063847175401
0.063847175401
0.063847175401
0.063847175401
0.063847175401
0.063847175401
0.063847175401
0.063847175401
0.063847175401
0.063847175401
0.063847175401
0.063847175401
0.063847175401
0.063847175401
0.063847175401
0.063847175401
0.063847175401
0.063847175401
0.063847175401
0.063847175401
0.063847175401
0.063847175401
0.063847175401
0.063847175401
0.063847175401
0.063847175401
0.063847175401
0.063847175401
0.063847175401
0.063847175401
0.063847175401
0.063847175401
0.063847175401
0.063847175401
0.063847175401
0.063847175401
0.063847175401
0.063847175401
0.063847175401
0.063847175401
0.063847175401
0.063847175401
0.0638471754012
0.0638471754034
0.0638471754243
0.0638471756131
0.063847177247
0.0638471907701
0.0638472979494
0.0638481120756
0.063854034285
0.0638950152709
0.0641583562795
0.0656301475089
0.0720491021894
0.0926296176285
0.148874317526
0.366583585314
0.063847175401
0.063847175401
0.063847175401
0.063847175401
0.063847175401
0.063847175401
0.063847175401
0.063847175401
0.063847175401
0.063847175401
0.063847175401
0.063847175401
0.063847175401
0.063847175401
0.063847175401
0.063847175401
0.063847175401
0.063847175401
0.063847175401
0.063847175401
0.063847175401
0.063847175401
0.063847175401
0.063847175401
0.063847175401
0.063847175401
0.063847175401
0.063847175401
0.063847175401
0.063847175401
0.063847175401
0.063847175401
0.063847175401
0.063847175401
0.063847175401
0.063847175401
0.063847175401
0.063847175401
0.063847175401
0.063847175401
0.063847175401
0.063847175401
0.063847175401
0.063847175401
0.0638471754012
0.0638471754036
0.0638471754259
0.0638471756265
0.0638471773526
0.0638471915434
0.0638473031418
0.0638481433007
0.0638541933672
0.0638955972301
0.0641586710689
0.0656151512375
0.0719333025022
0.0921523346372
0.147334519946
0.360890801359
0.063847175401
0.063847175401
0.063847175401
0.063847175401
0.063847175401
0.063847175401
0.063847175401
0.063847175401
0.063847175401
0.063847175401
0.063847175401
0.063847175401
0.063847175401
0.063847175401
0.063847175401
0.063847175401
0.063847175401
0.063847175401
0.063847175401
0.063847175401
0.063847175401
0.063847175401
0.063847175401
0.063847175401
0.063847175401
0.063847175401
0.063847175401
0.063847175401
0.063847175401
0.063847175401
0.063847175401
0.063847175401
0.063847175401
0.063847175401
0.063847175401
0.063847175401
0.063847175401
0.063847175401
0.063847175401
0.063847175401
0.063847175401
0.063847175401
0.063847175401
0.063847175401
0.0638471754012
0.0638471754038
0.0638471754276
0.0638471756413
0.0638471774686
0.0638471923887
0.0638473087925
0.0638481771447
0.0638543657752
0.0638962377732
0.0641591989928
0.0656007116628
0.0718177593198
0.0916689326675
0.14575485226
0.354963076438
0.063847175401
0.063847175401
0.063847175401
0.063847175401
0.063847175401
0.063847175401
0.063847175401
0.063847175401
0.063847175401
0.063847175401
0.063847175401
0.063847175401
0.063847175401
0.063847175401
0.063847175401
0.063847175401
0.063847175401
0.063847175401
0.063847175401
0.063847175401
0.063847175401
0.063847175401
0.063847175401
0.063847175401
0.063847175401
0.063847175401
0.063847175401
0.063847175401
0.063847175401
0.063847175401
0.063847175401
0.063847175401
0.063847175401
0.063847175401
0.063847175401
0.063847175401
0.063847175401
0.063847175401
0.063847175401
0.063847175401
0.063847175401
0.063847175401
0.063847175401
0.063847175401
0.0638471754013
0.063847175404
0.0638471754296
0.0638471756576
0.063847177596
0.0638471933122
0.0638473149373
0.0638482138324
0.0638545525881
0.0638969412167
0.0641599557918
0.0655868856335
0.0717025853779
0.0911795293897
0.14413534781
0.348802669214
0.063847175401
0.063847175401
0.063847175401
0.063847175401
0.063847175401
0.063847175401
0.063847175401
0.063847175401
0.063847175401
0.063847175401
0.063847175401
0.063847175401
0.063847175401
0.063847175401
0.063847175401
0.063847175401
0.063847175401
0.063847175401
0.063847175401
0.063847175401
0.063847175401
0.063847175401
0.063847175401
0.063847175401
0.063847175401
0.063847175401
0.063847175401
0.063847175401
0.063847175401
0.063847175401
0.063847175401
0.063847175401
0.063847175401
0.063847175401
0.063847175401
0.063847175401
0.063847175401
0.063847175401
0.063847175401
0.063847175401
0.063847175401
0.063847175401
0.063847175401
0.063847175401
0.0638471754013
0.0638471754042
0.0638471754318
0.0638471756756
0.0638471777359
0.0638471943217
0.0638473216226
0.0638482535561
0.0638547545329
0.0638977094411
0.0641609471551
0.0655737069738
0.0715880110157
0.0906849393863
0.142477898396
0.342409838917
0.063847175401
0.063847175401
0.063847175401
0.063847175401
0.063847175401
0.063847175401
0.063847175401
0.063847175401
0.063847175401
0.063847175401
0.063847175401
0.063847175401
0.063847175401
0.063847175401
0.063847175401
0.063847175401
0.063847175401
0.063847175401
0.063847175401
0.063847175401
0.063847175401
0.063847175401
0.063847175401
0.063847175401
0.063847175401
0.063847175401
0.063847175401
0.063847175401
0.063847175401
0.063847175401
0.063847175401
0.063847175401
0.063847175401
0.063847175401
0.063847175401
0.063847175401
0.063847175401
0.063847175401
0.063847175401
0.063847175401
0.063847175401
0.063847175401
0.063847175401
0.063847175401
0.0638471754013
0.0638471754045
0.0638471754342
0.0638471756955
0.0638471778894
0.0638471954237
0.0638473288826
0.0638482964989
0.0638549722833
0.0638985442254
0.0641621681039
0.0655611237686
0.0714738484153