/*--------------------------------*- C++ -*----------------------------------*\
| =========                 |                                                 |
| \\      /  F ield         | foam-extend: Open Source CFD                    |
|  \\    /   O peration     | Version:     4.1                                |
|   \\  /    A nd           | Web:         http://www.foam-extend.org         |
|    \\/     M anipulation  |                                                 |
\*---------------------------------------------------------------------------*/
FoamFile
{
    version     2.0;
    format      ascii;
    class       volVectorField;
    location    "5e-05";
    object      U;
}
// * * * * * * * * * * * * * * * * * * * * * * * * * * * * * * * * * * * * * //

dimensions      [0 1 -1 0 0 0 0];

internalField   nonuniform List<vector> 
4200
(
(1500 -1.96268929818e-10 -1.24385581731e-13)
(1500 -1.97265690756e-10 -7.33255424334e-14)
(1500 -1.97630305525e-10 4.23108078526e-14)
(1500 -1.98520714617e-10 3.47479544034e-14)
(1500 -2.00487547944e-10 1.25280561294e-15)
(1500 -2.02533108685e-10 9.35219297741e-16)
(1500 -2.04297347933e-10 4.45527019738e-16)
(1500 -2.04958880917e-10 -3.52325365263e-16)
(1500 -2.06764853223e-10 6.57149731212e-16)
(1500 -2.10014650823e-10 1.06232049291e-15)
(1500 -2.1292888791e-10 1.23253438628e-16)
(1500 -2.15282326411e-10 -1.84572036946e-16)
(1500 -2.17313903794e-10 3.1745958936e-17)
(1500 -2.19578568496e-10 -2.15580135074e-16)
(1500 -2.2156491661e-10 3.47339221952e-16)
(1500 -2.23806181356e-10 1.01589831191e-15)
(1500 -2.26733509619e-10 1.30983466992e-13)
(1500 -2.29888813963e-10 9.50253357664e-14)
(1500 -2.32948228696e-10 2.11944045382e-13)
(1500 -2.3512368647e-10 5.75159773745e-14)
(1500 -2.38143766849e-10 -1.18974360682e-15)
(1500 -2.41045061723e-10 -1.56330535243e-13)
(1500 -2.43660183324e-10 -3.03697123332e-13)
(1500 -2.45825546813e-10 -4.27492039151e-13)
(1500 -2.4903576824e-10 -3.50332540916e-13)
(1500 -2.5142737043e-10 -2.74260635585e-13)
(1500 -2.55064954384e-10 -1.94195609616e-13)
(1500 -2.59110855072e-10 -2.27604746925e-14)
(1500 -2.63136620066e-10 2.11124932306e-14)
(1500 -2.66285120999e-10 -1.26766615382e-13)
(1500 -2.69192357461e-10 -5.92761997255e-14)
(1500 -2.73336117158e-10 -1.49711262793e-15)
(1500 -2.77803312436e-10 5.04288816532e-16)
(1500 -2.81372775951e-10 1.78215383883e-13)
(1500 -2.83599852527e-10 3.28141186768e-13)
(1500 -2.86433150312e-10 2.55591183857e-13)
(1500 -2.8974438549e-10 1.79086042676e-13)
(1500 -2.93041421788e-10 9.42449589314e-14)
(1500 -2.96355486096e-10 -7.20510717479e-14)
(1500 -2.99457056289e-10 9.6077766965e-14)
(1500 -3.02850701483e-10 3.29282660191e-14)
(1500 -3.06495683283e-10 1.57612242197e-15)
(1500 -3.10406786682e-10 -7.52637223629e-16)
(1500 -3.14587114794e-10 -4.08143846188e-16)
(1500 -3.13540333506e-10 1.5907274807e-15)
(1499.99999999 -2.5232977508e-10 8.63667974922e-15)
(1499.99999995 4.18259020412e-10 -1.04025998425e-13)
(1499.99999949 7.00947563096e-09 7.57522682571e-13)
(1499.99999519 6.93224883484e-08 9.30802870767e-12)
(1499.99995596 6.40087410144e-07 9.19890386847e-11)
(1499.99960837 5.72471823113e-06 8.37035949439e-10)
(1499.99660037 4.99737062332e-05 6.92066923924e-09)
(1499.97106262 0.000428128950875 4.83022204861e-08)
(1499.75742021 0.00362231661006 1.90196781219e-07)
(1497.99730297 0.0303997763047 -2.18765639255e-06)
(1484.36062821 0.245670908608 -7.45278135912e-05)
(1404.52329932 1.60022088361 -0.00104775295929)
(1153.7806235 6.26008696239 -0.00645983160768)
(810.340374569 13.2056742668 -0.0188070868044)
(860.132711779 13.8153631838 -0.0205758276051)
(1500 -1.03873454652e-10 1.04987365766e-13)
(1500 -1.0535266163e-10 8.03699066354e-14)
(1500 -1.06503740719e-10 3.77455827615e-14)
(1500 -1.07886079344e-10 2.21982592408e-14)
(1500 -1.09376510757e-10 6.23409313827e-15)
(1500 -1.11034691553e-10 2.91142243753e-16)
(1500 -1.13066985183e-10 -3.86135233287e-14)
(1500 -1.14764732384e-10 -2.34870832757e-14)
(1500 -1.16305312483e-10 -7.51166291181e-15)
(1500 -1.17664805023e-10 -5.31177707183e-17)
(1500 -1.18281009541e-10 3.970715231e-14)
(1500 -1.1892905399e-10 2.2918680898e-14)
(1500 -1.19680192001e-10 8.51375166217e-15)
(1500 -1.20672516123e-10 3.11560004718e-16)
(1500 -1.22068610519e-10 -3.88993095138e-14)
(1500 -1.22866276283e-10 -2.43219004281e-14)
(1500 -1.23362193104e-10 -5.40815386113e-15)
(1500 -1.23854811956e-10 -2.85539594475e-16)
(1500 -1.25235367304e-10 -2.92601398003e-14)
(1500 -1.27169476905e-10 -1.64758540547e-14)
(1500 -1.29905807604e-10 -3.6104773185e-16)
(1500 -1.32381682103e-10 3.49666487565e-17)
(1500 -1.34155042707e-10 -1.83343892983e-16)
(1500 -1.35443067908e-10 -2.2389948011e-16)
(1500 -1.36745478301e-10 -4.33116875087e-17)
(1500 -1.37995725255e-10 1.80978911984e-17)
(1500 -1.39003740934e-10 3.25401137502e-14)
(1500 -1.40130124156e-10 8.02926373733e-14)
(1500 -1.41477730435e-10 7.21548141963e-14)
(1500 -1.43246522077e-10 4.62575392009e-14)
(1500 -1.4564313555e-10 2.63079600052e-14)
(1500 -1.4811806362e-10 7.5862785547e-15)
(1500 -1.50992229885e-10 2.35741314887e-16)
(1500 -1.53690497818e-10 7.84036010637e-18)
(1500 -1.56340765519e-10 -4.35842928754e-14)
(1500 -1.58897595573e-10 1.8848919535e-14)
(1500 -1.61448664135e-10 1.0166885226e-14)
(1500 -1.63273115204e-10 -4.63177544328e-14)
(1500 -1.65312898284e-10 -3.21963840146e-14)
(1500 -1.66582890091e-10 -8.03544351486e-14)
(1500 -1.67639952221e-10 -5.28333483504e-14)
(1500 -1.68325433339e-10 -2.79715289621e-14)
(1500 -1.69558524903e-10 -9.67869870777e-16)
(1500 -1.70698598026e-10 5.75546661026e-14)
(1500 -1.56009032971e-10 4.03682802671e-14)
(1499.99999999 2.51301543525e-11 1.00227337457e-13)
(1499.99999995 1.87969241872e-09 5.65710858954e-14)
(1499.99999949 1.99630250698e-08 -9.83967902909e-14)
(1499.99999518 1.90139986892e-07 -1.10805494633e-12)
(1499.99995589 1.74220929144e-06 -7.09873027044e-12)
(1499.99960786 1.55100075795e-05 -3.77458260307e-11)
(1499.99659694 0.000134802950295 -1.6872105691e-10)
(1499.97104183 0.00114920232599 -1.20810782914e-09)
(1499.75729947 0.00965539415043 -2.76010267786e-08)
(1497.99666304 0.0800106219315 -6.68726789483e-07)
(1484.35728746 0.629196267606 -1.21540084107e-05)
(1404.51541184 3.89000998992 -0.000144328826879)
(1153.87161806 14.3219365787 -0.00082518432825)
(810.884012809 28.9005507298 -0.00215933032234)
(860.934977704 27.6312476437 -0.00304999752724)
(1500 -3.98110805238e-11 -5.80108729787e-14)
(1500 -4.04213286895e-11 -4.45728119939e-14)
(1500 -4.1382655152e-11 -3.20518793732e-14)
(1500 -4.21800237015e-11 -2.44422516002e-14)
(1500 -4.21330303802e-11 -4.44540662817e-14)
(1500 -4.20145494131e-11 -1.69640681309e-14)
(1500 -4.2708331949e-11 -9.53439141885e-15)
(1500 -4.39471622138e-11 4.08784095656e-15)
(1500 -4.508997488e-11 1.04173569686e-14)
(1500 -4.57501386355e-11 5.17662018133e-15)
(1500 -4.62757217416e-11 3.03672349708e-14)
(1500 -4.69259308195e-11 2.17583962549e-14)
(1500 -4.74140229884e-11 1.21803296058e-14)
(1500 -4.72537018793e-11 -1.25216477252e-14)
(1500 -4.79806888284e-11 1.0403703954e-14)
(1500 -4.84640366163e-11 2.37325508039e-15)
(1500 -4.83549523428e-11 2.83406953166e-17)
(1500 -4.8234681053e-11 -2.53178836473e-17)
(1500 -4.86843142853e-11 1.59310225988e-17)
(1500 -4.99535061677e-11 2.79038666649e-17)
(1500 -5.10238726573e-11 -1.32007472766e-17)
(1500 -5.29055364807e-11 -2.8175305724e-14)
(1500 -5.49774560025e-11 -1.65817158169e-14)
(1500 -5.6303778942e-11 -1.90126386055e-15)
(1500 -5.69744873524e-11 2.58790006228e-14)
(1500 -5.74106684055e-11 1.65558174847e-14)
(1500 -5.75320638331e-11 6.74357464266e-15)
(1500 -5.73138495258e-11 8.74077115599e-16)
(1500 -5.69420105674e-11 1.25533430092e-17)
(1500 -5.67437711583e-11 -2.12943911305e-17)
(1500 -5.67502643319e-11 3.25275101282e-14)
(1500 -5.72480102521e-11 1.86412618829e-14)
(1500 -5.8594534283e-11 -1.7606814669e-14)
(1500 -6.01862830951e-11 -4.18531227037e-14)
(1500 -6.19855461383e-11 -1.00780590081e-14)
(1500 -6.3928574264e-11 -4.00817631408e-14)
(1500 -6.53388701527e-11 -1.21927366181e-15)
(1500 -6.61293624065e-11 3.1652874435e-14)
(1500 -6.66475907558e-11 2.90915074129e-14)
(1500 -6.69874579313e-11 5.84963671633e-14)
(1500 -6.66978473914e-11 4.08670191654e-14)
(1500 -6.59806257636e-11 2.44426210666e-14)
(1500 -6.53153204051e-11 1.05707878424e-14)
(1500 -6.24871105303e-11 3.62478632611e-16)
(1500 -3.3704047769e-11 -1.75417088148e-16)
(1499.99999999 2.71131538892e-10 -1.68878805524e-15)
(1499.99999995 3.35375522255e-09 -1.54967217349e-14)
(1499.99999949 3.33494592757e-08 -1.04709681978e-13)
(1499.99999516 3.1531548864e-07 -7.9945006406e-13)
(1499.9999558 2.88405705356e-06 -5.0884789355e-12)
(1499.99960732 2.56429829021e-05 -2.46555014053e-11)
(1499.9965951 0.000222576172582 -3.99357033081e-11)
(1499.97105259 0.00189469841735 8.97356326203e-10)
(1499.75763905 0.0158898737519 1.18061244149e-08)
(1498.00163099 0.131329764926 3.15565801641e-08)
(1484.4116638 1.02825402446 -1.01683073568e-06)
(1404.88950436 6.31141142649 -1.64948088157e-05)
(1155.14730732 23.0450409939 -0.00010138352062)
(813.162610743 46.2001190704 -0.000279867464153)
(863.061573306 43.4986748 -0.000425305503285)
(1500 -2.08142639062e-11 2.69184064251e-14)
(1500 -2.24348296258e-11 1.820852325e-14)
(1500 -2.35349427155e-11 1.08022007385e-14)
(1500 -2.40110164546e-11 -8.94736485061e-15)
(1500 -2.39501497593e-11 -1.12553748981e-14)
(1500 -2.35754046617e-11 -5.71527736995e-15)
(1500 -2.29176426042e-11 -4.77931173094e-16)
(1500 -2.22713244678e-11 -1.66271868124e-14)
(1500 -2.19630504342e-11 -1.97844929223e-15)
(1500 -2.19770193985e-11 5.14754387206e-15)
(1500 -2.16856628613e-11 3.04917830427e-15)
(1500 -2.13967942328e-11 2.67890865344e-15)
(1500 -2.13250221475e-11 1.97696254989e-14)
(1500 -2.12301868349e-11 1.15676685177e-14)
(1500 -2.13050576972e-11 7.72059544688e-15)
(1500 -2.23198161406e-11 2.53894057189e-14)
(1500 -2.29706174192e-11 3.27309055467e-14)
(1500 -2.36134244486e-11 3.01986968033e-14)
(1500 -2.40076758032e-11 2.12591382454e-14)
(1500 -2.4838506044e-11 1.29905557505e-14)
(1500 -2.4995744456e-11 5.10280470006e-15)
(1500 -2.48179049416e-11 1.01672004588e-16)
(1500 -2.57515389644e-11 2.07171933869e-14)
(1500 -2.66918976643e-11 1.37116331391e-14)
(1500 -2.79542165529e-11 7.78222145417e-15)
(1500 -2.93272004948e-11 2.67774100354e-14)
(1500 -3.00861685013e-11 3.60169176112e-15)
(1500 -3.04894942791e-11 -3.32580204529e-16)
(1500 -3.01345791572e-11 2.33050603707e-14)
(1500 -2.95945505552e-11 4.39358233665e-14)
(1500 -2.90001192253e-11 3.63789303822e-14)
(1500 -2.85629990407e-11 4.70409929946e-14)
(1500 -2.85870235541e-11 3.61282559069e-14)
(1500 -2.82433488903e-11 2.40104269027e-14)
(1500 -2.77277793155e-11 1.37865396709e-14)
(1500 -2.82632749124e-11 3.1903142791e-15)
(1500 -2.88553308018e-11 8.68682041788e-17)
(1500 -3.01678099086e-11 6.15200710172e-18)
(1500 -3.12224022581e-11 6.0906107529e-18)
(1500 -3.25644622169e-11 3.45816558368e-17)
(1500 -3.38049010338e-11 2.64470211506e-17)
(1500 -3.49459492071e-11 1.11451979705e-17)
(1500 -3.46948732765e-11 1.2942826999e-17)
(1500 -3.02700125018e-11 -2.64948046418e-17)
(1500 1.12140293066e-11 -1.3219262721e-16)
(1499.99999999 4.41937016035e-10 -1.16202520284e-15)
(1499.99999995 4.78017202664e-09 -1.06312842591e-14)
(1499.99999948 4.69276102791e-08 -7.38114956024e-14)
(1499.99999514 4.42686194584e-07 -5.36438453146e-13)
(1499.99995566 4.04389954274e-06 -3.25264192605e-12)
(1499.99960651 3.59098992237e-05 -1.37037567799e-11)
(1499.99659222 0.000311258185496 1.16099507583e-11)
(1499.9710686 0.00264543284853 1.09253270177e-09)
(1499.75815024 0.0221458679135 1.39748878482e-08)
(1498.00921541 0.182633679792 9.62266676004e-08)
(1484.4951234 1.42618282339 2.73922521837e-07)
(1405.46460174 8.72952643337 -9.02943030803e-07)
(1157.1059884 31.8041476148 -1.02158215974e-05)
(816.632540986 63.6663088719 -3.07741410601e-05)
(866.263124894 59.6488733032 -4.90788556385e-05)
(1500 -1.07150793583e-11 1.5206638894e-15)
(1500 -1.14151693075e-11 2.05334517988e-15)
(1500 -1.17705423119e-11 4.87786311023e-17)
(1500 -1.1818408439e-11 -1.22089027194e-17)
(1500 -1.22585620562e-11 -3.59328974765e-18)
(1500 -1.26477730403e-11 -1.44864374299e-14)
(1500 -1.27347727738e-11 -2.51792054219e-14)
(1500 -1.26980361283e-11 -9.42801321558e-15)
(1500 -1.22888050583e-11 -4.94795136465e-15)
(1500 -1.24054509212e-11 -3.10924268548e-15)
(1500 -1.26589973945e-11 -7.94026601875e-17)
(1500 -1.22586569616e-11 -4.81106495349e-15)
(1500 -1.19459018178e-11 -7.26588389407e-15)
(1500 -1.17013746752e-11 -3.56325748816e-15)
(1500 -1.11430080255e-11 -1.54344833372e-14)
(1500 -1.11569929996e-11 -1.1907283863e-14)
(1500 -1.16005697667e-11 -5.19200177954e-15)
(1500 -1.21813020888e-11 -1.81983019282e-14)
(1500 -1.25885026468e-11 -1.26963650987e-14)
(1500 -1.27784612134e-11 -4.82355986222e-15)
(1500 -1.36657338197e-11 -1.54271195516e-16)
(1500 -1.36866761807e-11 -1.97050079288e-17)
(1500 -1.39483795374e-11 1.44501360041e-17)
(1500 -1.48977549371e-11 1.26454350602e-14)
(1500 -1.56016546401e-11 8.30217022814e-15)
(1500 -1.68579424514e-11 3.39878736314e-15)
(1500 -1.90170509636e-11 1.28732103402e-16)
(1500 -2.096413957e-11 6.41466553089e-18)
(1500 -2.27897681518e-11 9.30809830453e-18)
(1500 -2.40184503401e-11 1.66100069477e-14)
(1500 -2.48570944931e-11 1.07914916085e-14)
(1500 -2.47661973186e-11 7.04813444156e-15)
(1500 -2.38009403491e-11 2.43725523768e-14)
(1500 -2.2238428733e-11 1.68256056175e-14)
(1500 -1.99784320021e-11 9.15277306782e-15)
(1500 -1.82430031572e-11 2.08709596729e-15)
(1500 -1.7429451623e-11 6.46732950189e-17)
(1500 -1.72939587853e-11 1.04875715072e-17)
(1500 -1.74226412303e-11 -9.19887628635e-18)
(1500 -1.81373813862e-11 1.79535784068e-14)
(1500 -1.89889284239e-11 9.87565114594e-15)
(1500 -2.06146441236e-11 -1.14549646844e-14)
(1500 -2.12059499774e-11 -6.15517802292e-15)
(1500 -1.66371483962e-11 -2.04671423855e-15)
(1500 3.64286695622e-11 -2.34655210424e-14)
(1499.99999999 5.95273308156e-10 -4.34283664079e-14)
(1499.99999995 6.21945367946e-09 -5.20836236312e-14)
(1499.99999948 6.08044822935e-08 -8.69733246526e-14)
(1499.99999512 5.72713134943e-07 -4.20005595741e-13)
(1499.99995547 5.22440271518e-06 -2.41778159605e-12)
(1499.99960538 4.63205494237e-05 -9.90107980819e-12)
(1499.99658818 0.000400798079753 1.30947675988e-11)
(1499.97108923 0.00339972843039 8.65567656016e-10)
(1499.75882232 0.0283980035102 1.10456951336e-08)
(1498.01919336 0.233617563711 8.02056094627e-08)
(1484.604963 1.81965192227 3.18511250651e-07)
(1406.22217357 11.1173421772 5.83698529194e-07)
(1159.6924729 40.4786240497 -1.67007589568e-07)
(821.223573976 81.0269378766 -1.70489918638e-06)
(870.495894865 75.7537993162 -3.1023167162e-06)
(1500 -5.77746332063e-12 -1.10116697833e-17)
(1500 -5.7839687339e-12 1.01493620151e-14)
(1500 -5.66266280491e-12 4.46613948498e-15)
(1500 -5.67265945799e-12 -5.71213680858e-15)
(1500 -5.72749036484e-12 -1.35582273154e-14)
(1500 -5.72247758872e-12 -2.82827580487e-15)
(1500 -5.87867688847e-12 -4.31019194175e-16)
(1500 -6.1733747714e-12 -2.39278709507e-17)
(1500 -6.19193340576e-12 -1.20896108979e-14)
(1500 -6.34867682358e-12 -2.20556524199e-14)
(1500 -7.42743941253e-12 -1.76467003978e-14)
(1500 -8.47499292942e-12 -1.14946555563e-14)
(1500 -9.32859861687e-12 -6.0295024376e-15)
(1500 -9.97477829036e-12 -3.3112051809e-15)
(1500 -1.05253881633e-11 -1.0187974384e-16)
(1500 -1.03239449566e-11 -1.2550557827e-17)
(1500 -9.90596600261e-12 -3.73846108231e-19)
(1500 -9.70132186114e-12 -5.80471776934e-18)
(1500 -9.80065849891e-12 -1.21995002226e-17)
(1500 -9.693964618e-12 -1.19635288653e-17)
(1500 -1.01187158332e-11 9.3591994135e-15)
(1500 -1.05166263682e-11 4.73479597185e-15)
(1500 -9.93823990263e-12 1.58319792284e-15)
(1500 -9.33222364348e-12 6.17608192696e-17)
(1500 -8.90909025361e-12 3.87837388273e-18)
(1500 -8.55285984662e-12 -4.55969376894e-18)
(1500 -9.53148775576e-12 1.25411626988e-14)
(1500 -1.10628699288e-11 5.70631195104e-15)
(1500 -1.29604142115e-11 1.41681518876e-15)
(1500 -1.41797609681e-11 -1.05041829794e-14)
(1500 -1.45748672421e-11 -7.745992317e-15)
(1500 -1.5056282295e-11 -2.22641400284e-14)
(1500 -1.49793634207e-11 -3.21290818384e-14)
(1500 -1.47575346176e-11 -1.67503091265e-14)
(1500 -1.42559607171e-11 -2.69370116009e-14)
(1500 -1.26815491402e-11 -8.89992122867e-15)
(1500 -1.10695105814e-11 -3.08998066206e-15)
(1500 -9.59908388691e-12 -8.70909067056e-17)
(1500 -8.84087308826e-12 7.2983084491e-19)
(1500 -8.1024015828e-12 8.82136292404e-18)
(1500 -7.91214511731e-12 8.10154688026e-18)
(1500 -8.43968631136e-12 -7.3853318872e-19)
(1500 -8.95496984508e-12 -7.67001774325e-18)
(1500 -3.78593811239e-12 -8.57623695767e-18)
(1500 6.1346163923e-11 1.50572280519e-14)
(1499.99999999 7.51911219943e-10 5.06730609467e-15)
(1499.99999995 7.70273513207e-09 -6.03317772025e-15)
(1499.99999948 7.50843503802e-08 -4.29447537e-14)
(1499.99999508 7.06087116012e-07 -3.11250747554e-13)
(1499.99995522 6.43015905537e-06 -1.87836360391e-12)
(1499.99960396 5.69039942576e-05 -7.77422394115e-12)
(1499.99658304 0.000491319825915 9.14296982018e-12)
(1499.97111316 0.00415765954612 6.60908027518e-10)
(1499.75964228 0.0346371059263 8.48732080349e-09)
(1498.03141395 0.284118873129 6.21457622748e-08)
(1484.73964697 2.20671672036 2.54241054757e-07)
(1407.1544812 13.4595191601 5.59388000175e-07)
(1162.88688005 49.0064819321 5.64190741676e-07)
(826.908964361 98.154092479 7.75673130397e-07)
(875.736311224 91.6684740107 1.13477051086e-06)
(1500 -5.16310679482e-12 1.55807140463e-14)
(1500 -4.68624412833e-12 1.33904932097e-14)
(1500 -4.40944294471e-12 9.24394972354e-15)
(1500 -3.96347250536e-12 3.51832299069e-15)
(1500 -3.39549093522e-12 7.89391108601e-17)
(1500 -3.25029309371e-12 -8.58427907247e-15)
(1500 -3.97168662162e-12 -5.53916946904e-15)
(1500 -5.03241844128e-12 4.01969816863e-15)
(1500 -5.92185742797e-12 -2.31624356462e-15)
(1500 -6.18100039841e-12 -2.9099830268e-15)
(1500 -6.48999256726e-12 4.05158892362e-15)
(1500 -7.24231267977e-12 -7.05404940218e-15)
(1500 -7.815445716e-12 -6.31553362365e-15)
(1500 -8.42291242845e-12 -1.50562790288e-14)
(1500 -9.06327403195e-12 -1.0129652616e-14)
(1500 -9.9112790742e-12 -5.75522539441e-15)
(1500 -1.0217562613e-11 -2.85165097654e-15)
(1500 -1.00635352509e-11 -7.77548105556e-17)
(1500 -9.56294938892e-12 1.29146869867e-14)
(1500 -8.95789643905e-12 8.62167694607e-15)
(1500 -8.41726585233e-12 -2.02473764133e-15)
(1500 -8.22880548519e-12 -1.11402355002e-15)
(1500 -7.91364094527e-12 -3.84822161889e-17)
(1500 -7.03787578601e-12 -1.32401640644e-14)
(1500 -5.4893373416e-12 -2.27470513904e-14)
(1500 -3.98602463938e-12 -1.71259182677e-14)
(1500 -2.74973078841e-12 -1.09194126649e-14)
(1500 -2.25351692955e-12 -5.63219827199e-15)
(1500 -2.675603926e-12 -1.29093239344e-15)
(1500 -4.00224727401e-12 -4.07450302702e-17)
(1500 -4.2945098872e-12 -1.64137995311e-17)
(1500 -4.34653769188e-12 -2.85852404929e-17)
(1500 -4.97859274893e-12 -3.69364167888e-17)
(1500 -5.70174844818e-12 1.08248182129e-14)
(1500 -6.89009059612e-12 5.42819268393e-15)
(1500 -7.84850069298e-12 1.75661751219e-15)
(1500 -8.1314823982e-12 1.37510197745e-14)
(1500 -7.52092263694e-12 9.56536683728e-15)
(1500 -7.08802485732e-12 2.2398716978e-14)
(1500 -6.20789435971e-12 2.88747049134e-14)
(1500 -5.26755527679e-12 2.38023710852e-14)
(1500 -4.65108975932e-12 3.05908543466e-14)
(1500 -4.50872975115e-12 2.09371396767e-14)
(1500 2.17090545003e-12 1.3485353556e-14)
(1500 8.10457488811e-11 1.22386893794e-15)
(1499.99999999 9.09345227351e-10 1.43635395417e-14)
(1499.99999995 9.23585561562e-09 5.17128799341e-15)
(1499.99999947 8.98438982202e-08 -2.46187446907e-14)
(1499.99999504 8.43447077196e-07 -2.3318615434e-13)
(1499.99995493 7.66626998542e-06 -1.47410175432e-12)
(1499.99960224 6.76949602172e-05 -6.2430235218e-12)
(1499.99657668 0.000583028748191 5.68152864427e-12)
(1499.97114001 0.00491980997422 5.03597372127e-10)
(1499.76060632 0.0408581840713 6.51971791634e-09)
(1498.04583962 0.334009353101 4.78501579194e-08)
(1484.89875416 2.58574248175 1.9588717474e-07)
(1408.25687741 15.7438504188 4.30660828876e-07)
(1166.67524281 57.3418601416 4.42634565995e-07)
(833.666059967 114.959369631 6.58765355441e-07)
(881.963338579 107.300488605 1.05935643145e-06)
(1500 -6.10643555531e-12 -3.5959458153e-15)
(1500 -6.0257097915e-12 -4.10279462951e-15)
(1500 -6.22968330602e-12 -7.47282491976e-16)
(1500 -6.85565801809e-12 7.15353184596e-15)
(1500 -7.15553627175e-12 4.16859679208e-15)
(1500 -6.73535447387e-12 4.73620947147e-16)
(1500 -6.26038987749e-12 -7.17016545351e-15)
(1500 -6.24083231512e-12 -3.93097545417e-15)
(1500 -6.5376282753e-12 -2.3283168165e-15)
(1500 -6.30051743515e-12 5.75876846646e-15)
(1500 -5.47399862479e-12 5.88838585793e-15)
(1500 -4.84353060558e-12 1.38894951255e-14)
(1500 -4.32496457386e-12 2.09665750748e-14)
(1500 -3.81906800048e-12 1.94384647145e-14)
(1500 -3.71556250858e-12 1.34029041217e-14)
(1500 -3.59158779182e-12 6.85798619507e-15)
(1500 -3.63502305098e-12 4.48759391301e-15)
(1500 -3.77934570487e-12 1.51167169746e-16)
(1500 -4.53033753762e-12 1.73728747023e-17)
(1500 -4.66699572936e-12 9.60155847033e-18)
(1500 -4.8509887903e-12 -2.81575346444e-18)
(1500 -5.24496232686e-12 -1.69476757388e-18)
(1500 -5.82137643397e-12 -1.00449300742e-14)
(1500 -6.48304508234e-12 -4.97094685311e-15)
(1500 -6.06768016671e-12 -3.51483578997e-15)
(1500 -4.67316599473e-12 -1.00788135045e-15)
(1500 -2.4187691731e-12 -4.54963869425e-17)
(1500 -8.27637748478e-13 -1.01387607792e-17)
(1500 8.73180444146e-13 -5.84905283973e-18)
(1500 9.72313874458e-13 -2.50925179255e-18)
(1500 -5.32797703792e-13 2.01145308015e-18)
(1500 -1.77503844853e-12 1.59792849594e-19)
(1500 -3.04841240595e-12 1.2022455674e-18)
(1500 -3.9836965881e-12 -4.16656035668e-15)
(1500 -4.82106154909e-12 -5.11326527731e-15)
(1500 -5.79567552751e-12 -1.73325579159e-15)
(1500 -7.58218619005e-12 -1.26006164859e-14)
(1500 -9.47899936093e-12 -6.62613493326e-15)
(1500 -1.06085338916e-11 -1.4302302565e-14)
(1500 -1.14260902042e-11 -7.48999453319e-15)
(1500 -1.14770122572e-11 -2.32015811201e-15)
(1500 -1.05954038583e-11 -3.00767189106e-17)
(1500 -9.23014356786e-12 -9.85392338444e-15)
(1500 -8.85281116258e-14 1.61836112108e-15)
(1500 9.39854849748e-11 -9.8599328491e-15)
(1499.99999999 1.068918601e-09 -5.9853634986e-15)
(1499.99999994 1.08355175066e-08 -2.87595752979e-15)
(1499.99999947 1.05200305278e-07 -2.01214529541e-14)
(1499.99999499 9.8564600762e-07 -1.87311471821e-13)
(1499.99995459 8.93887129172e-06 -1.16824978195e-12)
(1499.99960021 7.87312840491e-05 -5.03754738487e-12)
(1499.99656914 0.00067612065918 2.6988575968e-12)
(1499.97116928 0.00568693208648 3.75384264342e-10)
(1499.76170644 0.0470584945204 4.92811926904e-09)
(1498.06237322 0.383183755497 3.62872691221e-08)
(1485.08103021 2.9553525523 1.48284453648e-07)
(1409.52135424 17.9598828033 3.20943436973e-07)
(1171.03335721 65.4467085947 3.06797228855e-07)
(841.460856232 131.372163694 4.43793062684e-07)
(889.14650767 122.58033114 7.57612617121e-07)
(1500 -4.55686761786e-12 1.90487794108e-14)
(1500 -4.90008443562e-12 1.33540514569e-14)
(1500 -4.86880074966e-12 9.02866811548e-15)
(1500 -5.26824887289e-12 1.44486502615e-14)
(1500 -6.22950801623e-12 1.67699253599e-14)
(1500 -7.44309454537e-12 1.28184265428e-14)
(1500 -7.54166280661e-12 8.79109483032e-15)
(1500 -6.92854034178e-12 4.16949035543e-15)
(1500 -6.14960577191e-12 2.84322832349e-15)
(1500 -5.60028310381e-12 4.718349775e-16)
(1500 -4.24282910639e-12 1.5329829271e-17)
(1500 -2.72434022829e-12 -7.34730330433e-15)
(1500 -2.01814355974e-12 -1.7707186313e-15)
(1500 -1.2540089518e-12 -4.2571646644e-17)
(1500 -1.22616828202e-12 -7.26558645559e-15)
(1500 -1.88449215547e-12 -1.39784753732e-14)
(1500 -2.30142034691e-12 -1.39903774571e-14)
(1500 -2.44895162023e-12 -9.21094452669e-15)
(1500 -2.62659986838e-12 -1.56982479872e-14)
(1500 -2.99111098499e-12 -1.11984980938e-14)
(1500 -2.74128312168e-12 -7.09825429587e-15)
(1500 -3.19173196586e-12 -3.29030141307e-15)
(1500 -3.88065755075e-12 -5.90646985902e-16)
(1500 -4.88242774945e-12 -2.33274810221e-17)
(1500 -5.7987241596e-12 -5.84573156083e-18)
(1500 -6.0789126863e-12 -5.99077801216e-19)
(1500 -4.96520712187e-12 -6.39825078544e-20)
(1500 -3.63065088087e-12 -1.84436648995e-18)
(1500 -2.31876455711e-12 -3.12982719119e-18)
(1500 -6.41217707165e-13 -8.70840226449e-19)
(1500 1.666301684e-13 7.2666429722e-19)
(1500 -1.96452632286e-13 6.36852673514e-19)
(1500 -1.20269777284e-12 2.20350412855e-18)
(1500 -2.25643949087e-12 3.1493969248e-19)
(1500 -3.08622945316e-12 -9.38750334564e-18)
(1500 -3.82876311043e-12 1.03708808264e-14)
(1500 -4.01647381051e-12 5.55008345002e-15)
(1500 -5.20012111894e-12 1.39928716287e-14)
(1500 -6.38073337116e-12 8.04111879142e-15)
(1500 -7.64325894624e-12 4.08821010485e-15)
(1500 -8.93182191931e-12 1.30552337274e-14)
(1500 -9.51178182444e-12 1.1503797721e-15)
(1500 -8.6198539027e-12 -2.3253647792e-15)
(1500 1.66589047124e-12 -1.13448138564e-14)
(1500 1.10641592281e-10 -7.06727077492e-15)
(1499.99999999 1.23820030663e-09 -3.23888363737e-15)
(1499.99999994 1.25159352592e-08 -1.77561807146e-14)
(1499.99999946 1.21268706788e-07 -3.77189401046e-14)
(1499.99999493 1.13367610703e-06 -1.61343450992e-13)
(1499.99995419 1.02553573358e-05 -9.1641896729e-13)
(1499.99959785 9.00634512328e-05 -3.97268411948e-12)
(1499.99656015 0.00077089861334 5.66423976297e-13)
(1499.97120019 0.00646011323277 2.69392272812e-10)
(1499.76293096 0.0532378504618 3.60038675763e-09)
(1498.0808537 0.431570540445 2.66209528001e-08)
(1485.2849425 3.31444435411 1.08436486677e-07)
(1410.93860404 20.0989869203 2.30162236126e-07)
(1175.93900702 73.2881704029 2.0290989147e-07)
(850.263797227 147.330840261 2.93121861324e-07)
(897.256816978 137.448757901 5.34860389939e-07)
(1500 -6.04442255908e-13 -1.88891255832e-14)
(1500 -1.67938195807e-12 -8.37720848559e-15)
(1500 -2.05287628171e-12 -1.06608070319e-14)
(1500 -1.48947370252e-12 -7.90303225247e-15)
(1500 -1.15792064452e-12 -2.81653017588e-15)
(1500 -1.77046865916e-12 -9.71708949487e-16)
(1500 -2.73382849709e-12 -9.53715757994e-18)
(1500 -3.16950689845e-12 3.90297212822e-15)
(1500 -3.37242064048e-12 7.51209924923e-15)
(1500 -4.09582254079e-12 -3.82060464901e-15)
(1500 -4.67055832663e-12 -3.05955865757e-15)
(1500 -4.05165904806e-12 3.73754216863e-15)
(1500 -3.00320498267e-12 9.53967834147e-15)
(1500 -2.25231586658e-12 6.37267435937e-15)
(1500 -8.357089991e-13 2.82080306682e-15)
(1500 -2.94427222383e-13 -1.2661530513e-16)
(1500 -6.81773292341e-14 4.89824246441e-16)
(1500 -4.27909650144e-13 5.92691154627e-15)
(1500 -8.27877206804e-13 1.22713222835e-14)
(1500 -7.16550992556e-13 6.81373360282e-15)
(1500 9.62187917169e-14 3.96428826322e-15)
(1500 9.62404390485e-13 1.0543505506e-14)
(1500 1.42270948521e-12 5.06786871654e-15)
(1500 1.25683998015e-12 2.12272093972e-15)
(1500 3.18460733483e-13 2.45867462341e-15)
(1500 -1.01125801537e-12 1.48618770117e-14)
(1500 -2.90936937586e-12 7.13586242386e-15)
(1500 -3.54430832063e-12 2.31915170951e-15)
(1500 -4.03754861564e-12 6.44429901055e-17)
(1500 -3.97896406769e-12 3.37489328357e-18)
(1500 -3.02355321645e-12 -8.90489255752e-15)
(1500 -1.86153027368e-12 -1.61624906448e-14)
(1500 -9.56822542601e-13 -1.10161760425e-14)
(1500 -5.73837855669e-13 4.13703612489e-16)
(1500 -5.3656980068e-13 1.3584168311e-14)
(1500 -1.25558925362e-12 1.0587092295e-14)
(1500 -1.62997182084e-12 6.07297716614e-15)
(1500 -1.56321730581e-12 -2.62326095978e-15)
(1500 -2.08021340597e-12 -1.17634636177e-14)
(1500 -2.21897071532e-12 2.35328221953e-16)
(1500 -2.69089033867e-12 -7.65575121873e-17)
(1500 -3.07991986394e-12 3.15291273097e-18)
(1500 -2.12080612075e-12 9.0951534145e-15)
(1500 8.96922212562e-12 4.87109475036e-15)
(1500 1.32503278458e-10 1.32220023145e-14)
(1499.99999999 1.42154641267e-09 8.19168280705e-15)
(1499.99999994 1.42934783206e-08 1.43788256438e-15)
(1499.99999945 1.38150082014e-07 -1.42545184677e-14)
(1499.99999487 1.28825579906e-06 -1.0257185895e-13)
(1499.99995373 1.16208614938e-05 -6.58555122667e-13)
(1499.99959518 0.000101728841724 -2.97809758154e-12)
(1499.99654991 0.000867564536453 -1.00126868259e-12)
(1499.97123267 0.00724031200405 1.78736506626e-10)
(1499.76428071 0.0593937992572 2.4512046435e-09)
(1498.10122465 0.479081468761 1.82169784589e-08)
(1485.50959284 3.66187826907 7.37316733984e-08)
(1412.50199256 22.1524496685 1.51929850781e-07)
(1181.36892078 80.8347669938 1.19980210776e-07)
(860.035707545 162.777726375 1.85169771401e-07)
(906.259317962 151.851021429 3.70324461383e-07)
(1500 -2.63000706446e-13 -1.01917677718e-14)
(1500 -4.90270863252e-13 -1.15073429758e-14)
(1500 -1.05226982297e-12 -1.03000302203e-14)
(1500 -2.81456027571e-13 -4.30418392132e-15)
(1500 6.82629502244e-13 1.46115378297e-15)
(1500 6.38326630328e-13 2.81245473287e-15)
(1500 -2.49862618119e-13 9.00675565835e-16)
(1500 -8.64258607438e-13 4.05440781171e-17)
(1500 -1.61965597732e-12 -5.11115431127e-15)
(1500 -1.89561523948e-12 -3.30240231365e-15)
(1500 -2.71768974785e-12 -2.28085821829e-15)
(1500 -3.7772702779e-12 -7.52430647003e-17)
(1500 -3.86417361102e-12 8.67145855242e-18)
(1500 -3.50032040158e-12 9.97843789448e-18)
(1500 -2.62432226674e-12 -4.97958450967e-15)
(1500 -1.1073652926e-12 -9.44121429952e-15)
(1500 1.25732100558e-13 -8.21285991961e-15)
(1500 1.51515493378e-12 -1.39173026629e-14)
(1500 1.99248087168e-12 -3.58233192059e-15)
(1500 2.17522578633e-12 -5.06230721999e-16)
(1500 2.3420872923e-12 -9.6691117573e-18)
(1500 2.34810749459e-12 1.48704976269e-17)
(1500 3.20915955283e-12 9.81829411377e-18)
(1500 4.05662181451e-12 4.34972142484e-18)
(1500 3.8339158695e-12 6.78686670715e-15)
(1500 3.12514731295e-12 2.09099826122e-14)
(1500 1.42021229658e-12 1.52247345447e-14)
(1500 -1.9277683123e-13 1.11463463921e-14)
(1500 -1.30317052108e-12 7.23147357355e-15)
(1500 -2.57942754947e-12 4.02575340845e-15)
(1500 -3.75434036522e-12 6.57594611977e-16)
(1500 -4.005956343e-12 -8.06612245377e-18)
(1500 -3.90194102447e-12 -9.84433455299e-15)
(1500 -3.05709535319e-12 -4.36087420133e-15)
(1500 -2.41493553358e-12 -1.66888559886e-15)
(1500 -1.83679603133e-12 -3.86550849559e-17)
(1500 -1.67086066691e-12 1.04712633856e-17)
(1500 -1.66456195589e-12 -7.60931782882e-15)