/*--------------------------------*- C++ -*----------------------------------*\
| =========                 |                                                 |
| \\      /  F ield         | foam-extend: Open Source CFD                    |
|  \\    /   O peration     | Version:     4.1                                |
|   \\  /    A nd           | Web:         http://www.foam-extend.org         |
|    \\/     M anipulation  |                                                 |
\*---------------------------------------------------------------------------*/
FoamFile
{
    version     2.0;
    format      ascii;
    class       volScalarField;
    location    "0.0008";
    object      eMoins;
}
// * * * * * * * * * * * * * * * * * * * * * * * * * * * * * * * * * * * * * //

dimensions      [0 0 0 0 0 0 0];

internalField   nonuniform List<scalar> 
8400
(
9.91207427825e-163
9.9120742783e-163
9.91207427836e-163
9.91207427841e-163
9.91207427847e-163
9.91207427852e-163
9.91207427857e-163
9.91207427862e-163
9.91207427867e-163
9.91207427872e-163
9.91207427877e-163
9.91207427882e-163
9.91207427886e-163
9.91207427891e-163
9.91207427895e-163
9.912074279e-163
9.91207427915e-163
9.91207428549e-163
9.91207464411e-163
9.91209502464e-163
9.91320594029e-163
9.97392697756e-163
1.07010295212e-162
4.25557885728e-16
5.8095921714e-09
4.11491654287e-06
1.51118968333e-05
2.17523788255e-05
2.48120494317e-05
2.60598247026e-05
2.65166088489e-05
2.66716314105e-05
2.67244242664e-05
2.67518456563e-05
2.67719340115e-05
2.6789411448e-05
2.68055358089e-05
2.68209061662e-05
2.6835848468e-05
2.68505697033e-05
2.68652745969e-05
2.68801045821e-05
2.68952011571e-05
2.69107378533e-05
2.69268998587e-05
2.69408490834e-05
2.69584815728e-05
2.69768921986e-05
2.69962176585e-05
2.70164880932e-05
2.70377143284e-05
2.70598647363e-05
2.70828523169e-05
2.71066184723e-05
2.71309659864e-05
2.71558072867e-05
2.71809264233e-05
2.720615175e-05
2.72311671157e-05
2.7255668716e-05
2.72792426083e-05
2.73016311779e-05
2.732255829e-05
2.73417187062e-05
2.73588045512e-05
2.73735471327e-05
2.7385698582e-05
2.73950697439e-05
2.74015557306e-05
2.74151197527e-05
9.91207426137e-163
9.91207426139e-163
9.91207426141e-163
9.91207426144e-163
9.91207426146e-163
9.91207426148e-163
9.9120742615e-163
9.91207426152e-163
9.91207426154e-163
9.91207426156e-163
9.91207426158e-163
9.9120742616e-163
9.91207426162e-163
9.91207426164e-163
9.91207426166e-163
9.91207426169e-163
9.91207426228e-163
9.91207429528e-163
9.91207619424e-163
9.91218177912e-163
9.91812841922e-163
1.00531312056e-162
7.10857302123e-63
2.46106771307e-12
2.30056257205e-08
8.86230431133e-06
1.84080320292e-05
2.34608825979e-05
2.56325191482e-05
2.64717349351e-05
2.67568690197e-05
2.68419616931e-05
2.68752379949e-05
2.68935198301e-05
2.6909262997e-05
2.69245538586e-05
2.69398238018e-05
2.69552949305e-05
2.69709824612e-05
2.69899101217e-05
2.70063247233e-05
2.70232791035e-05
2.70407793901e-05
2.70588935353e-05
2.7077736482e-05
2.70973406583e-05
2.7117732828e-05
2.71389360788e-05
2.71609051433e-05
2.71837229855e-05
2.72073494381e-05
2.72317879845e-05
2.72568925318e-05
2.72825488434e-05
2.73085008714e-05
2.73346838357e-05
2.73608964639e-05
2.73869707202e-05
2.74125695944e-05
2.7437405007e-05
2.74611110462e-05
2.74834803877e-05
2.75042287266e-05
2.75231106192e-05
2.7539847167e-05
2.75541944053e-05
2.75659551602e-05
2.75749820242e-05
2.75811895718e-05
2.75923250073e-05
9.91207425324e-163
9.91207425325e-163
9.91207425326e-163
9.91207425328e-163
9.91207425329e-163
9.9120742533e-163
9.91207425332e-163
9.91207425333e-163
9.91207425334e-163
9.91207425335e-163
9.91207425336e-163
9.91207425338e-163
9.91207425339e-163
9.9120742534e-163
9.91207425341e-163
9.91207425348e-163
9.91207425675e-163
9.91207444472e-163
9.91208526509e-163
9.91268222563e-163
9.94609420023e-163
1.04001432896e-162
1.87861673905e-21
2.86416209547e-09
1.94375497048e-06
1.35315525204e-05
2.1109022755e-05
2.4706300659e-05
2.61790277267e-05
2.67098256729e-05
2.68736631946e-05
2.6921441889e-05
2.69392858339e-05
2.69516204425e-05
2.69632010355e-05
2.69749690812e-05
2.69901162918e-05
2.70029251393e-05
2.70164133599e-05
2.70305617211e-05
2.70454182441e-05
2.70610169656e-05
2.70774617525e-05
2.7094742139e-05
2.71129033035e-05
2.71319759771e-05
2.71518957494e-05
2.71727576869e-05
2.71945510532e-05
2.72172853756e-05
2.72408929069e-05
2.72652467529e-05
2.72901657513e-05
2.73154918053e-05
2.73411425436e-05
2.73669774176e-05
2.73927753574e-05
2.74182560217e-05
2.74431122176e-05
2.74670878421e-05
2.74899557267e-05
2.75114642032e-05
2.75313666084e-05
2.75493759354e-05
2.75652635583e-05
2.7578832108e-05
2.75898818625e-05
2.75983383554e-05
2.76041421545e-05
2.76136552102e-05
9.91207424826e-163
9.91207424827e-163
9.91207424828e-163
9.91207424829e-163
9.9120742483e-163
9.91207424831e-163
9.91207424831e-163
9.91207424832e-163
9.91207424833e-163
9.91207424834e-163
9.91207424835e-163
9.91207424836e-163
9.91207424837e-163
9.91207424838e-163
9.91207424839e-163
9.91207424862e-163
9.91207426176e-163
9.91207502574e-163
9.91211854043e-163
9.91456779929e-163
1.00031632765e-162
1.96897666291e-63
1.06591031028e-13
1.04666625478e-08
6.42911061821e-06
1.69355379575e-05
2.28067384943e-05
2.54092230325e-05
2.64313132649e-05
2.6776980317e-05
2.68793176204e-05
2.69129680401e-05
2.69286993239e-05
2.69414126288e-05
2.69537206835e-05
2.69661361636e-05
2.69817885993e-05
2.69950008887e-05
2.70088090099e-05
2.70232451452e-05
2.70383755473e-05
2.70542653525e-05
2.7071006973e-05
2.70886447009e-05
2.71071974934e-05
2.71266934999e-05
2.71470762192e-05
2.71683766887e-05
2.71906047499e-05
2.72137369242e-05
2.72377314633e-05
2.72624122082e-05
2.72876227725e-05
2.73131381257e-05
2.73389097745e-05
2.73647588156e-05
2.7390481977e-05
2.74157664394e-05
2.74403388026e-05
2.74639278083e-05
2.74863723127e-05
2.75074143904e-05
2.75268389288e-05
2.75443514726e-05
2.75597347211e-05
2.75728257773e-05
2.75835099501e-05
2.75916640101e-05
2.75972635207e-05
2.76058890431e-05
9.91207424488e-163
9.91207424489e-163
9.9120742449e-163
9.91207424491e-163
9.91207424491e-163
9.91207424492e-163
9.91207424493e-163
9.91207424494e-163
9.91207424494e-163
9.91207424495e-163
9.91207424496e-163
9.91207424496e-163
9.91207424497e-163
9.91207424498e-163
9.912074245e-163
9.9120742459e-163
9.91207429766e-163
9.91207729927e-163
9.91224506202e-163
9.92178749157e-163
1.01053728455e-162
1.20471759895e-62
2.61264530692e-11
5.19896365845e-08
1.02434450356e-05
1.92441996071e-05
2.38356728851e-05
2.57733986087e-05
2.65059727489e-05
2.674524694e-05
2.68164723104e-05
2.68463213299e-05
2.68642726155e-05
2.68803366455e-05
2.68959840405e-05
2.69115967265e-05
2.69273048261e-05
2.69431555801e-05
2.69622749129e-05
2.69789642932e-05
2.69962864118e-05
2.70142666462e-05
2.70329715335e-05
2.70524587771e-05
2.70728070719e-05
2.70940579128e-05
2.71161870128e-05
2.71391780333e-05
2.71629206001e-05
2.71874643255e-05
2.72127129972e-05
2.72386011911e-05
2.72649250914e-05
2.72915384323e-05
2.73182039532e-05
2.73448096776e-05
2.73711124221e-05
2.73968614435e-05
2.74218595014e-05
2.74429487928e-05
2.74656694378e-05
2.74868666058e-05
2.75063285957e-05
2.75237751147e-05
2.75390178871e-05
2.75519565856e-05
2.75625182111e-05
2.75706366144e-05
2.7576246583e-05
2.75844280094e-05
9.91207424246e-163
9.91207424246e-163
9.91207424247e-163
9.91207424248e-163
9.91207424248e-163
9.91207424249e-163
9.91207424249e-163
9.9120742425e-163
9.9120742425e-163
9.91207424251e-163
9.91207424252e-163
9.91207424252e-163
9.91207424253e-163
9.91207424253e-163
9.91207424259e-163
9.91207424565e-163
9.91207442223e-163
9.91208460343e-163
9.91264764554e-163
9.94423630792e-163
1.03812624776e-162
2.36177240262e-29
2.64031103832e-09
1.72877469867e-06
1.32438814415e-05
2.08399227904e-05
2.44568958239e-05
2.5941946077e-05
2.6483492024e-05
2.66554621382e-05
2.67122522453e-05
2.67398160467e-05
2.67615236503e-05
2.67818212315e-05
2.68016184883e-05
2.68213034965e-05
2.68410123286e-05
2.68608893184e-05
2.68810198861e-05
2.69014831914e-05
2.69223711409e-05
2.69437035499e-05
2.69656576751e-05
2.6988185577e-05
2.70142862891e-05
2.70382915273e-05
2.7060241184e-05
2.70858942784e-05
2.71122079054e-05
2.71392009876e-05
2.71666613468e-05
2.71945508806e-05
2.7222736628e-05
2.72511194881e-05
2.72795027613e-05
2.7307624919e-05
2.7335226034e-05
2.73620891717e-05
2.73880340446e-05
2.74128450186e-05
2.74363070948e-05
2.74581515204e-05
2.74781189382e-05
2.74960109311e-05
2.75116309074e-05
2.75248629648e-05
2.75356229304e-05
2.75438608933e-05
2.75495296535e-05
2.7557414305e-05
9.91207424064e-163
9.91207424064e-163
9.91207424065e-163
9.91207424065e-163
9.91207424066e-163
9.91207424066e-163
9.91207424067e-163
9.91207424067e-163
9.91207424068e-163
9.91207424068e-163
9.91207424069e-163
9.91207424069e-163
9.9120742407e-163
9.9120742407e-163
9.91207424083e-163
9.912074248e-163
9.91207465656e-163
9.91209791313e-163
9.91336833805e-163
9.98248611653e-163
1.08014402753e-162
4.03804766746e-15
6.84027845785e-09
4.7176423695e-06
1.5559002138e-05
2.19313936772e-05
2.48173596154e-05
2.59738898824e-05
2.63831743738e-05
2.6514836658e-05
2.65668100777e-05
2.65981049234e-05
2.66252657471e-05
2.66511234205e-05
2.66764326683e-05
2.67014387218e-05
2.67263263239e-05
2.67511825968e-05
2.67760994688e-05
2.68010450812e-05
2.68262811916e-05
2.68519029211e-05
2.68780481458e-05
2.69047019518e-05
2.69318658767e-05
2.69595342853e-05
2.69878152582e-05
2.70166872738e-05
2.70461278646e-05
2.70760872815e-05
2.71065412801e-05
2.71372610528e-05
2.71680415556e-05
2.71987583731e-05
2.72292952509e-05
2.72594659587e-05
2.7288973632e-05
2.73175191108e-05
2.73449084619e-05
2.73709843309e-05
2.73956240011e-05
2.74186449103e-05
2.74365709477e-05
2.74552986718e-05
2.74715812751e-05
2.74853606423e-05
2.74965834148e-05
2.75052004569e-05
2.75111483597e-05
2.75190322621e-05
9.91207423923e-163
9.91207423924e-163
9.91207423924e-163
9.91207423925e-163
9.91207423925e-163
9.91207423926e-163
9.91207423926e-163
9.91207423926e-163
9.91207423927e-163
9.91207423927e-163
9.91207423928e-163
9.91207423928e-163
9.91207423928e-163
9.91207423929e-163
9.91207423969e-163
9.91207426239e-163
9.91207557419e-163
9.91214921053e-163
9.91629387253e-163
1.00292422513e-162
4.49202691105e-63
6.7623626796e-13
1.52314693105e-08
7.5552323573e-06
1.73617894796e-05
2.26766057933e-05
2.50021991006e-05
2.59145736785e-05
2.6232982274e-05
2.63389250604e-05
2.63910835106e-05
2.64276793151e-05
2.64611034827e-05
2.64933370776e-05
2.6524851745e-05
2.65558873856e-05
2.6586684423e-05
2.66172609272e-05
2.66476501527e-05
2.66779973917e-05
2.67084631113e-05
2.67391885659e-05
2.67702087412e-05
2.68014157714e-05
2.68329539904e-05
2.68649571027e-05
2.68974849532e-05
2.69304551939e-05
2.69636708908e-05
2.69972376387e-05
2.70310072915e-05
2.70649088402e-05
2.70958694358e-05
2.71295777695e-05
2.71628290809e-05
2.71954385952e-05
2.72272294101e-05
2.72579616234e-05
2.72873766317e-05
2.73152714874e-05
2.73413799057e-05
2.73655895239e-05
2.73876621448e-05
2.74073456133e-05
2.74244844197e-05
2.74389781677e-05
2.74507567508e-05
2.74597604314e-05
2.74659376063e-05
2.74737480941e-05
9.91207423812e-163
9.91207423813e-163
9.91207423813e-163
9.91207423813e-163
9.91207423814e-163
9.91207423814e-163
9.91207423814e-163
9.91207423815e-163
9.91207423815e-163
9.91207423815e-163
9.91207423816e-163
9.91207423816e-163
9.91207423817e-163
9.91207423819e-163
9.91207423924e-163
9.91207430009e-163
9.91207782389e-163
9.91227460155e-163
9.92344434384e-163
1.01297855931e-162
1.395234001e-62
6.38612864253e-11
6.0140016254e-08
1.01258550723e-05
1.88058856042e-05
2.32006585106e-05
2.506756533e-05
2.57906202686e-05
2.60409521347e-05
2.61342566413e-05
2.61863000034e-05
2.62324287303e-05
2.62729369417e-05
2.63121894409e-05
2.63506143015e-05
2.63883983366e-05
2.64255717733e-05
2.64622539513e-05
2.64986310431e-05
2.65348087475e-05
2.657095937e-05
2.66072834319e-05
2.66407771599e-05
2.66772920002e-05
2.67139755167e-05
2.6750986756e-05
2.67882389997e-05
2.68254467395e-05
2.68629098291e-05
2.69005333903e-05
2.69382048366e-05
2.69758626839e-05
2.70132265029e-05
2.70499644152e-05
2.70861064784e-05
2.71215942464e-05
2.7156127753e-05
2.71893102748e-05
2.72208921623e-05
2.72508062491e-05
2.72758632181e-05
2.73017386289e-05
2.73252203209e-05
2.73461569473e-05
2.73643554001e-05
2.73797415322e-05
2.73922483479e-05
2.74018082922e-05
2.74083600804e-05
2.74161881131e-05
9.91207423722e-163
9.91207423723e-163
9.91207423723e-163
9.91207423723e-163
9.91207423724e-163
9.91207423724e-163
9.91207423724e-163
9.91207423725e-163
9.91207423725e-163
9.91207423725e-163
9.91207423726e-163
9.91207423726e-163
9.91207423726e-163
9.91207423732e-163
9.91207424026e-163
9.91207440896e-163
9.91208407828e-163
9.91261616646e-163
9.9422586552e-163
1.03615322872e-162
1.67556556392e-29
2.27312749101e-09
1.27721164725e-06
1.24350552771e-05
1.99351754459e-05
2.35467977957e-05
2.50534194774e-05
2.56223716975e-05
2.58239615854e-05
2.59073723375e-05
2.59637195594e-05
2.60137993898e-05
2.60615943471e-05
2.61080523581e-05
2.61535522988e-05
2.61982564097e-05
2.62423339719e-05
2.62857416845e-05
2.6328612135e-05
2.63712219394e-05
2.64136125884e-05
2.64556990279e-05
2.64977262715e-05
2.65397363025e-05
2.65818395477e-05
2.6624081881e-05
2.66662625308e-05
2.67083727154e-05
2.67506038846e-05
2.67928597705e-05
2.68349007308e-05
2.68737033262e-05
2.6914753933e-05
2.69550892532e-05
2.69946279246e-05
2.70331921756e-05
2.70706072172e-05
2.71064957475e-05
2.71405085994e-05
2.71726410374e-05
2.72027626638e-05
2.72305787024e-05
2.72557339823e-05
2.72779479582e-05
2.7297235428e-05
2.73136134556e-05
2.73269946414e-05
2.73371889225e-05
2.73440761782e-05
2.73517988555e-05
9.91207423649e-163
9.91207423649e-163
9.91207423649e-163
9.9120742365e-163
9.9120742365e-163
9.9120742365e-163
9.9120742365e-163
9.91207423651e-163
9.91207423651e-163
9.91207423651e-163
9.91207423652e-163
9.91207423652e-163
9.91207423652e-163
9.91207423664e-163
9.91207424336e-163
9.91207462475e-163
9.91209624092e-163
9.91327279872e-163
9.97704668904e-163
1.07353094554e-162
5.60868102469e-16
5.73767778738e-09
3.80300298665e-06
1.44012827904e-05
2.07976826235e-05
2.37408325715e-05
2.49509290302e-05
2.54062161446e-05
2.5574001087e-05
2.56564841462e-05
2.57195708852e-05
2.57775479264e-05
2.58334872546e-05
2.5888097803e-05
2.59412841452e-05
2.59935470271e-05
2.60449586794e-05
2.6095333102e-05
2.6145070681e-05
2.61942634454e-05
2.62431853341e-05
2.62916632054e-05
2.63397639773e-05
2.63878474259e-05
2.64325858028e-05
2.648044807e-05
2.65279837924e-05
2.65752471825e-05
2.66224545513e-05
2.66693695154e-05
2.67157336853e-05
2.67616001629e-05
2.68067805799e-05
2.68511620432e-05
2.68944850078e-05
2.69365031329e-05
2.69738822819e-05
2.70127366481e-05
2.70495519815e-05
2.70840958241e-05
2.71163120962e-05
2.71459370449e-05
2.71727525369e-05
2.71965538797e-05
2.72172602141e-05
2.72347510555e-05
2.72489491581e-05
2.72597676749e-05
2.72671429783e-05
2.72750823087e-05
9.91207423587e-163
9.91207423588e-163
9.91207423588e-163
9.91207423588e-163
9.91207423588e-163
9.91207423589e-163
9.91207423589e-163
9.91207423589e-163
9.91207423589e-163
9.9120742359e-163
9.9120742359e-163
9.9120742359e-163
9.91207423591e-163
9.91207423626e-163
9.91207425601e-163
9.91207538671e-163
9.91213849206e-163
9.91564664172e-163
1.00215782721e-162
3.38208254878e-63
3.15538187234e-13
1.21708058893e-08
6.46597186798e-06
1.611533409e-05
2.14359686722e-05
2.38242834728e-05
2.47873619356e-05
2.51490246622e-05
2.52973265778e-05
2.53827857496e-05
2.54545088343e-05
2.55220307503e-05
2.55870515749e-05
2.56504206474e-05
2.57120884567e-05
2.57723159597e-05
2.58313763829e-05
2.588963062e-05
2.59438079453e-05
2.60001366465e-05
2.6055752246e-05
2.6110966884e-05
2.61655636237e-05
2.6219753226e-05
2.62737056655e-05
2.632713673e-05
2.63801511708e-05
2.64326884193e-05
2.64851128091e-05
2.65338356877e-05
2.65851472796e-05
2.66355465884e-05
2.66849716328e-05
2.67332241098e-05
2.67802957319e-05
2.68259325993e-05
2.68696748217e-05
2.69114683625e-05
2.69511586601e-05
2.69852507375e-05
2.70199383942e-05
2.70517385729e-05
2.70804256981e-05
2.71058705537e-05
2.71279737256e-05
2.71466065664e-05
2.71616600602e-05
2.71730847663e-05
2.71808526449e-05
2.71887928692e-05
9.91207423536e-163
9.91207423536e-163
9.91207423536e-163
9.91207423536e-163
9.91207423536e-163
9.91207423537e-163
9.91207423537e-163
9.91207423537e-163
9.91207423537e-163
9.91207423538e-163
9.91207423538e-163
9.91207423538e-163
9.9120742354e-163
9.91207423638e-163
9.91207429225e-163
9.91207747305e-163
9.9122523668e-163
9.92198646369e-163
1.01097894683e-162
1.15672155665e-62
1.67330486018e-11
3.75192901623e-08
9.0527979208e-06
1.754511699e-05
2.19062587681e-05
2.38105342016e-05
2.45719425508e-05
2.48648697511e-05
2.49986306032e-05
2.5090067515e-05
2.51712905855e-05
2.5248586228e-05
2.53234091087e-05
2.53930666065e-05
2.54639264744e-05
2.55331570706e-05
2.56006723334e-05
2.56667711786e-05
2.57317958184e-05
2.57956170777e-05
2.58585232487e-05
2.59206763063e-05
2.59819403576e-05
2.60396681778e-05
2.60997545773e-05
2.61592361614e-05
2.62182563257e-05
2.62764432269e-05
2.63339563765e-05
2.63907697553e-05
2.6446958532e-05
2.6498801581e-05
2.65527697345e-05
2.66054139852e-05
2.66563091019e-05
2.67054277006e-05
2.67525705689e-05
2.67975861157e-05
2.6840207944e-05
2.68800669949e-05
2.6917111235e-05
2.69478179755e-05
2.69784804594e-05
2.70056604678e-05
2.7029245735e-05
2.70490968014e-05
2.70651262857e-05
2.70772964608e-05
2.70856117987e-05
2.7093804854e-05
9.91207423491e-163
9.91207423491e-163
9.91207423492e-163
9.91207423492e-163
9.91207423492e-163
9.91207423492e-163
9.91207423493e-163
9.91207423493e-163
9.91207423493e-163
9.91207423493e-163
9.91207423493e-163
9.91207423494e-163
9.91207423499e-163
9.91207423809e-163
9.91207441397e-163
9.91208437533e-163
9.91262665781e-163
9.9424206132e-163
1.03656424375e-162
1.43454581837e-29
2.06652419504e-09
9.02986138701e-07
1.14801895839e-05
1.87044158405e-05
2.22192288355e-05
2.37179639398e-05
2.43187296908e-05
2.45563398185e-05
2.46842811124e-05
2.47827143691e-05
2.48733588619e-05
2.49578305704e-05
2.50423809132e-05
2.51247167312e-05
2.52047321781e-05
2.52828650218e-05
2.53590815469e-05
2.54336568168e-05
2.55037452978e-05
2.5575628246e-05
2.56462614869e-05
2.57157274595e-05
2.57842894171e-05
2.58516670712e-05
2.59181879974e-05
2.59809558492e-05
2.6045849909e-05
2.61099162729e-05
2.61731476557e-05
2.62351251522e-05
2.62960226814e-05
2.63558528775e-05
2.64143917864e-05
2.64679584705e-05
2.65229449078e-05
2.65758689431e-05
2.66266326799e-05
2.66748248865e-05
2.6720334935e-05
2.67628990207e-05
2.68023527722e-05
2.68384862292e-05
2.68711455341e-05
2.68965820851e-05
2.69217329939e-05
2.69428113638e-05
2.6959883302e-05
2.69728556906e-05
2.69817026266e-05
2.69900025054e-05
9.91207423453e-163
9.91207423453e-163
9.91207423454e-163
9.91207423454e-163
9.91207423454e-163
9.91207423454e-163
9.91207423454e-163
9.91207423455e-163
9.91207423455e-163
9.91207423455e-163
9.91207423455e-163
9.91207423456e-163
9.9120742347e-163
9.91207424286e-163
9.91207469811e-163
9.91210001886e-163
9.91345370552e-163
9.98501783196e-163
1.08246732589e-162
2.63346246619e-15
6.03182252205e-09
3.59809501462e-06
1.36069543529e-05
1.95945565101e-05
2.23801493735e-05
2.35500576106e-05
2.40213749918e-05
2.4224067765e-05
2.43505295529e-05
2.44580275372e-05
2.45594895751e-05
2.46570436816e-05
2.47519566153e-05
2.48440063564e-05
2.49307431813e-05
2.50179695529e-05
2.51031373519e-05
2.51864824189e-05
2.52677889946e-05
2.53475750791e-05
2.54259842575e-05
2.54999814485e-05
2.55757024144e-05
2.56501990186e-05
2.57237603319e-05
2.57960223366e-05
2.58671988809e-05
2.59341765629e-05
2.60029383805e-05
2.60703300794e-05
2.61364707274e-05
2.62011939733e-05
2.62640320306e-05
2.63251979971e-05
2.63810368801e-05
2.64378284737e-05
2.64921356702e-05
2.65435874812e-05
2.65920977237e-05
2.66374218448e-05
2.66792881376e-05
2.67174896396e-05
2.67520461104e-05
2.67793867128e-05
2.6806018108e-05
2.68283997975e-05
2.68464622645e-05
2.6860146664e-05
2.68694684484e-05
2.68778312272e-05
9.9120742342e-163
9.9120742342e-163
9.9120742342e-163
9.9120742342e-163
9.91207423421e-163
9.91207423421e-163
9.91207423421e-163
9.91207423421e-163
9.91207423421e-163
9.91207423422e-163
9.91207423422e-163
9.91207423423e-163
9.91207423477e-163
9.9120742654e-163
9.9120759894e-163
9.91217029308e-163
9.91733635501e-163
1.00473936904e-162
5.3816567549e-63
9.24010013098e-13
1.47104997431e-08
6.54718498603e-06
1.54230039661e-05
2.024292631e-05
2.24093977513e-05
2.33150813842e-05
2.36869699406e-05
2.38712071287e-05
2.40034789693e-05
2.41223426252e-05
2.42354405632e-05
2.43447060612e-05
2.44472602776e-05
2.45498300373e-05
2.4649139854e-05
2.47459719902e-05
2.48403555391e-05
2.49293740787e-05
2.50192576437e-05
2.51074629822e-05
2.51936602751e-05
2.52784690837e-05
2.53582160586e-05
2.54398897475e-05
2.55202471063e-05
2.5598993075e-05
2.56764441709e-05
2.57527554965e-05
2.5824116873e-05
2.58972598775e-05
2.5968624108e-05
2.60383921597e-05
2.61059455991e-05
2.61713954421e-05
2.62312798172e-05
2.62918737253e-05
2.63496203592e-05
2.64044758598e-05
2.64560831564e-05
2.650410959e-05
2.65484603158e-05
2.65889308234e-05
2.66254481383e-05
2.66543231479e-05
2.66824219744e-05
2.67060803034e-05
2.6725218651e-05
2.67397818198e-05
2.67497465585e-05
2.67583382716e-05
9.91207423391e-163
9.91207423391e-163
9.91207423391e-163
9.91207423391e-163
9.91207423392e-163
9.91207423392e-163
9.91207423392e-163
9.91207423392e-163
9.91207423392e-163
9.91207423392e-163
9.91207423393e-163
9.91207423396e-163
9.91207423598e-163
9.91207434913e-163
9.91208067415e-163
9.9124212997e-163
9.93091626145e-163
1.023225315e-162
1.43245088761e-39
5.49616003833e-10
9.83184940339e-08
9.41766360579e-06
1.69032029176e-05
2.06777842161e-05
2.23326897816e-05
2.30280177552e-05
2.33312780118e-05
2.35043742856e-05
2.36449725237e-05
2.37755722594e-05
2.38976319333e-05
2.40183565552e-05
2.41352195611e-05
2.42484451896e-05
2.43553298286e-05
2.44622674477e-05
2.45660075235e-05
2.46672468706e-05
2.47628560609e-05
2.48592157615e-05
2.49533859651e-05
2.50459346485e-05
2.51364254403e-05
2.52219608751e-05
2.53092639787e-05
2.53946064843e-05
2.54784496232e-05
2.5560714947e-05
2.56376939387e-05
2.57164384609e-05
2.57930455278e-05
2.58676975999e-05
2.59401892307e-05
2.60102114394e-05
2.60740503498e-05
2.61385558365e-05
2.61999925201e-05
2.62580960171e-05
2.63125795888e-05
2.63633590357e-05
2.64102241218e-05
2.64530560664e-05
2.64880791066e-05
2.65221724955e-05
2.65516452833e-05
2.65765093427e-05
2.65966255047e-05
2.66119483428e-05
2.66224793952e-05
2.66312174978e-05
9.91207423365e-163
9.91207423365e-163
9.91207423365e-163
9.91207423366e-163
9.91207423366e-163
9.91207423366e-163
9.91207423366e-163
9.91207423366e-163
9.91207423366e-163
9.91207423367e-163
9.91207423367e-163
9.9120742338e-163
9.91207424083e-163
9.91207462947e-163
9.91209604201e-163
9.91323192933e-163
9.97303267217e-163
1.0695765444e-162
6.32280526067e-17
4.46298011523e-09
2.30898242278e-06
1.19873616014e-05
1.80306123958e-05
2.09208577823e-05
2.21704128026e-05
2.27001397835e-05
2.29572321043e-05
2.31288838155e-05
2.3276272637e-05
2.34186378509e-05
2.35554895435e-05
2.36877705879e-05
2.38126280711e-05
2.39367052763e-05
2.40567853986e-05
2.41703889569e-05
2.42840599964e-05
2.43944333041e-05
2.4502276294e-05
2.46040470157e-05
2.47067188711e-05
2.48069754495e-05
2.49049325508e-05
2.49975932533e-05
2.50918537241e-05
2.5183801643e-05
2.52738110663e-05
2.53621774162e-05
2.54449130033e-05
2.55290021391e-05
2.56109985779e-05
2.5690451666e-05
2.57674529828e-05
2.58382546563e-05
2.59099001921e-05
2.59782810126e-05
2.60431967188e-05
2.6104582982e-05
2.61621838339e-05
2.62158366812e-05
2.62617771776e-05
2.63068788832e-05
2.63473560552e-05
2.63831108064e-05
2.64140568816e-05
2.64400444893e-05
2.64610706257e-05
2.64771068657e-05
2.64881458687e-05
2.64970137453e-05
9.91207423342e-163
9.91207423342e-163
9.91207423342e-163
9.91207423343e-163
9.91207423343e-163
9.91207423343e-163
9.91207423343e-163
9.91207423343e-163
9.91207423343e-163
9.91207423344e-163
9.91207423345e-163
9.912074234e-163
9.91207426463e-163
9.91207596316e-163
9.9121676786e-163
9.91710934152e-163
1.00460041827e-162
4.78070489425e-63
6.08868510461e-13
1.25366653968e-08
5.59129643109e-06
1.41226321703e-05
1.88298009207e-05
2.09832051308e-05
2.19183651031e-05
2.23358040764e-05
2.25633208699e-05
2.27408843244e-05
2.29034893122e-05
2.30585805069e-05
2.32047072093e-05
2.33485964719e-05
2.34878625955e-05
2.36193715706e-05
2.37498255724e-05
2.38765773652e-05
2.39964788783e-05
2.41160640004e-05
2.42327060174e-05
2.43461367917e-05
2.44536488025e-05
2.45620954065e-05
2.46677829435e-05
2.47678421743e-05
2.48688598967e-05
2.49675237593e-05
2.50639915082e-05
2.51581418444e-05
2.52467389381e-05
2.53362438212e-05
2.54231497826e-05
2.55074333093e-05
2.55890847253e-05
2.56640774103e-05
2.57395518084e-05
2.58118818361e-05
2.58802308886e-05
2.59447460084e-05
2.60052880459e-05
2.60578147121e-05
2.61097836859e-05
2.61571040518e-05
2.61996555168e-05
2.62371310744e-05
2.62695158615e-05
2.62967700837e-05
2.63188404027e-05
2.63356909594e-05
2.6347319044e-05
2.63563572144e-05
9.91207423322e-163
9.91207423322e-163
9.91207423322e-163
9.91207423322e-163
9.91207423322e-163
9.91207423322e-163
9.91207423323e-163
9.91207423323e-163
9.91207423323e-163
9.91207423323e-163
9.91207423328e-163
9.91207423582e-163
9.91207437544e-163
9.91208202705e-163
9.9124865992e-163
9.93400006642e-163
1.02725793967e-162
2.00989664831e-39
7.34418684121e-10
9.35941567989e-08
8.82472103348e-06
1.57969111095e-05
1.93300906157e-05
2.09111341899e-05
2.16078744516e-05
2.19458646534e-05
2.21635361364e-05
2.23501949919e-05
2.2522330707e-05
2.26903636638e-05
2.2852097878e-05
2.30050254799e-05
2.31559542184e-05
2.32984227034e-05
2.3439472483e-05
2.35758376839e-05
2.3705206488e-05
2.38338816301e-05
2.3959131723e-05
2.40811166514e-05
2.41966648318e-05
2.4312572811e-05
2.44259514564e-05
2.45328417072e-05
2.46410457444e-05
2.47462906145e-05
2.48491339812e-05
2.49458202539e-05
2.50437578556e-05
2.51385166419e-05
2.52304709087e-05
2.53195396639e-05
2.54019857268e-05
2.5484752684e-05
2.55640430626e-05
2.56396802687e-05
2.57116131586e-05
2.57753997542e-05
2.58390793771e-05
2.58979052014e-05
2.59520762791e-05
2.60014084671e-05
2.60457038989e-05
2.60847643081e-05
2.61184558538e-05
2.61469286314e-05
2.61659518672e-05
2.61837184803e-05
2.61959362062e-05
2.62050949177e-05
9.91207423303e-163
9.91207423303e-163
9.91207423303e-163
9.91207423304e-163
9.91207423304e-163
9.91207423304e-163
9.91207423304e-163
9.91207423304e-163
9.91207423304e-163
9.91207423305e-163
9.91207423325e-163
9.91207424381e-163
9.91207481388e-163
9.91210542827e-163
9.91369030584e-163
9.99399217597e-163
1.27724786367e-64
3.30635424573e-15
5.6920131773e-09
2.65807848001e-06
1.15884111666e-05
1.70019129382e-05
1.95789163381e-05
2.07294432456e-05
2.12577085254e-05
2.15440584748e-05
2.17613803789e-05
2.19560552438e-05
2.21438700584e-05
2.23213616949e-05
2.2495030029e-05
2.26597246549e-05
2.28213524973e-05
2.29779004238e-05
2.31260351626e-05
2.32726898875e-05
2.34115189244e-05
2.35495081111e-05
2.36832525899e-05
2.38100855931e-05
2.39371200063e-05
2.4060581196e-05
2.41809615923e-05
2.42950798328e-05
2.4409603332e-05
2.45213415598e-05
2.46266055101e-05
2.47326736928e-05
2.48358167324e-05
2.49362421028e-05
2.50333007139e-05
2.51233518629e-05
2.52138943213e-05
2.53007053363e-05
2.53840727011e-05
2.54591313592e-05
2.55342303806e-05
2.56050093751e-05
2.56711444463e-05
2.57324547348e-05
2.57888549367e-05
2.58402231438e-05
2.58821831967e-05
2.59229136083e-05
2.59580500963e-05
2.59876004134e-05
2.60115738517e-05
2.60299302384e-05
2.60426671051e-05
2.6051979552e-05
9.91207423286e-163
9.91207423287e-163
9.91207423287e-163
9.91207423287e-163
9.91207423287e-163
9.91207423287e-163
9.91207423287e-163
9.91207423287e-163
9.91207423288e-163
9.9120742329e-163
9.91207423409e-163
9.91207429872e-163
9.91207780339e-163
9.91226211889e-163
9.92198659836e-163
1.0113803475e-162
9.92004876783e-63
5.36003787901e-12
2.02643065916e-08
6.33847790462e-06
1.37841857628e-05
1.77821216538e-05
1.96193548604e-05
2.04547146123e-05
2.08670201218e-05
2.11317524352e-05
2.13559670268e-05
2.1565666394e-05
2.17633062533e-05
2.1953180696e-05
2.21387500091e-05
2.23176800694e-05
2.24872048577e-05
2.26542301391e-05
2.28122320318e-05
2.29685230802e-05
2.31163992263e-05
2.32634995647e-05
2.34059571909e-05
2.35411966426e-05
2.36758731747e-05
2.38068638669e-05
2.39307706514e-05
2.40551905565e-05
2.41761213435e-05
2.42940017373e-05
2.4405183529e-05
2.45168098794e-05
2.46252347935e-05
2.47264843898e-05
2.48283468568e-05
2.49266061904e-05
2.50215029208e-05
2.51124774468e-05
2.51952423684e-05
2.52779709567e-05
2.53561291078e-05
2.54296253891e-05
2.54984450892e-05
2.55581135262e-05
2.56167484841e-05
2.56698931538e-05
2.57175590924e-05
2.57596445374e-05
2.57960754279e-05
2.58267877022e-05
2.58516684386e-05
2.5870717806e-05
2.58839770255e-05
2.58933943456e-05
9.91207423271e-163
9.91207423271e-163
9.91207423272e-163
9.91207423272e-163
9.91207423272e-163
9.91207423272e-163
9.91207423272e-163
9.91207423272e-163
9.91207423273e-163
9.91207423286e-163
9.91207423988e-163
9.91207461713e-163
9.91209481727e-163
9.91313882117e-163
9.96648683785e-163
1.06297237708e-162
8.68688521857e-19
3.22014330647e-09
9.40665352028e-07
9.66122124014e-06
1.53896297943e-05
1.82152441573e-05
1.95115751667e-05
2.0120495141e-05
2.04620089875e-05
2.07213284457e-05
2.0953152751e-05
2.11760599099e-05
2.13864775581e-05
2.15913856328e-05
2.17855173608e-05
2.19756220312e-05
2.2155437948e-05
2.23325252631e-05
2.25000994367e-05
2.26656506333e-05
2.28224601313e-05
2.2977653931e-05
2.31285934e-05
2.32712830202e-05
2.34135936419e-05
2.35483112363e-05
2.36829385387e-05
2.38142009026e-05
2.39415317572e-05
2.40614155417e-05
2.41818577033e-05
2.42987565126e-05
2.44083850956e-05
2.45183402813e-05
2.46245653374e-05
2.47270666929e-05
2.48214969093e-05
2.49164455586e-05
2.50067430721e-05
2.50924681343e-05
2.51735994128e-05
2.52454677682e-05
2.53168248537e-05
2.53828981142e-05
2.54435237574e-05
2.54985106003e-05
2.5547789866e-05