/*--------------------------------*- C++ -*----------------------------------*\
| =========                 |                                                 |
| \\      /  F ield         | foam-extend: Open Source CFD                    |
|  \\    /   O peration     | Version:     4.1                                |
|   \\  /    A nd           | Web:         http://www.foam-extend.org         |
|    \\/     M anipulation  |                                                 |
\*---------------------------------------------------------------------------*/
FoamFile
{
    version     2.0;
    format      ascii;
    class       volScalarField;
    location    "0.0008";
    object      Mach;
}
// * * * * * * * * * * * * * * * * * * * * * * * * * * * * * * * * * * * * * //

dimensions      [0 0 0 0 0 0 0];

internalField   nonuniform List<scalar> 
8400
(
56.1971337664
56.1971337664
56.1971337665
56.1971337665
56.1971337665
56.1971337666
56.1971337666
56.1971337667
56.1971337667
56.1971337667
56.1971337667
56.1971337668
56.1971337668
56.1971337668
56.1971337669
56.1971337669
56.1971337669
56.1971337667
56.1971337531
56.1971329766
56.1970895231
56.194719377
56.1023321208
19.7324332405
9.57823989138
4.29669738462
2.29118608139
1.22274966603
0.660153144976
0.390879582415
0.28372483213
0.248476549071
0.236557222466
0.230489286661
0.225620359938
0.220851067427
0.215957240025
0.210916384919
0.205749967766
0.200488235259
0.195163238597
0.189803465366
0.184435443974
0.179082181746
0.173778757824
0.168524588676
0.163325998837
0.158244792447
0.15328384729
0.148458505019
0.143790766349
0.13930492051
0.135018632693
0.130941018966
0.127080740078
0.123451813668
0.120070309831
0.116948241593
0.11409339152
0.111511655997
0.109208809269
0.107185484645
0.105435724346
0.103950283049
0.102719309522
0.101731606221
0.100972727148
0.100425147248
0.100070091249
0.0999802156126
56.1971337745
56.1971337745
56.1971337745
56.1971337745
56.1971337745
56.1971337745
56.1971337745
56.1971337745
56.1971337745
56.1971337745
56.1971337745
56.1971337746
56.1971337746
56.1971337746
56.1971337746
56.1971337746
56.1971337746
56.1971337733
56.1971337013
56.1971296072
56.1969010806
56.1868555003
44.0545861376
15.8982594612
7.38322393863
3.34530742511
1.78110252717
0.940918683656
0.511085980101
0.31923125621
0.250200612942
0.228316748836
0.219713550372
0.214332709265
0.209723166675
0.20536620986
0.201150920632
0.197055346082
0.193062900106
0.189195763133
0.185477022244
0.181870533598
0.178393190651
0.175050675203
0.171848288427
0.168792434223
0.165889537646
0.163143861333
0.160558788098
0.158137842027
0.15588455955
0.153802239802
0.15189257175
0.15015321829
0.14858055108
0.147170075056
0.145916798507
0.144814991305
0.143858309192
0.143037918672
0.142344157301
0.141765933511
0.141291104324
0.140907354858
0.140603103876
0.140366829647
0.140187200501
0.140053373701
0.139955491219
0.139925647255
56.1971337792
56.1971337792
56.1971337792
56.1971337792
56.1971337793
56.1971337793
56.1971337793
56.1971337793
56.1971337793
56.1971337793
56.1971337793
56.1971337793
56.1971337793
56.1971337793
56.1971337793
56.1971337793
56.1971337791
56.197133772
56.1971333612
56.1971100853
56.1958202044
56.1439092979
24.343792744
10.711537063
4.87226431829
2.56227507114
1.35833861137
0.722116073346
0.416096369689
0.295568980317
0.257171945724
0.244538574254
0.238332637907
0.233714242136
0.229639064665
0.22587066413
0.222367406299
0.219132364595
0.216112854376
0.213308391845
0.210708624271
0.20830393478
0.206085476388
0.204045296068
0.202175108884
0.200467619931
0.198915982751
0.197513011719
0.196251094538
0.195122845613
0.194122129391
0.193242864214
0.192478192118
0.191820419547
0.191260798592
0.190790325866
0.190400859418
0.190084580163
0.189833114831
0.189637918876
0.189490013093
0.189380323855
0.18930028552
0.189242373086
0.189199120211
0.18916352603
0.189129000316
0.189089453087
0.189039696095
0.189003484627
56.1971337824
56.1971337824
56.1971337824
56.1971337824
56.1971337824
56.1971337824
56.1971337824
56.1971337824
56.1971337824
56.1971337824
56.1971337824
56.1971337824
56.1971337824
56.1971337824
56.1971337824
56.1971337823
56.1971337818
56.197133753
56.197132086
56.1970376687
56.1924080814
52.32709144
18.0221577116
8.52442859798
3.81021314692
2.02908584215
1.08137749962
0.599529689094
0.390285789324
0.318808311981
0.296882855121
0.288149055038
0.282591792543
0.277941942946
0.273736766306
0.269861450338
0.26628744035
0.263018544768
0.260001681987
0.257231159394
0.254692007395
0.252370134499
0.250251926364
0.248324795767
0.246576384254
0.244994970035
0.243569736355
0.242289899828
0.241144542183
0.240123237579
0.239217436855
0.238420354892
0.237724317088
0.237120394212
0.23659850355
0.236149549237
0.235766314134
0.235443126182
0.235172888727
0.234948089286
0.234759069971
0.234599207387
0.234462379865
0.234344382465
0.234240352627
0.234145201245
0.234053961491
0.233962423542
0.23386710621
0.233793669316
56.1971337846
56.1971337846
56.1971337846
56.1971337846
56.1971337846
56.1971337846
56.1971337846
56.1971337846
56.1971337846
56.1971337846
56.1971337846
56.1971337846
56.1971337846
56.1971337846
56.1971337845
56.1971337845
56.1971337826
56.1971336691
56.1971271769
56.1967621664
56.1810831822
37.9469576038
13.82384972
6.63249074837
3.11186236336
1.66917365075
0.910651157971
0.549452506887
0.410907770932
0.367718859548
0.353175505497
0.345589754161
0.339750224509
0.334521699066
0.329682477538
0.325175962072
0.320978555324
0.31706459984
0.313416882822
0.310051556251
0.306921773116
0.304020518981
0.301335454773
0.29885373216
0.296562659748
0.294453342307
0.292515044901
0.290734670088
0.289101966305
0.287607056946
0.286241896325
0.284998870346
0.283871027782
0.282848732701
0.281922772518
0.28108549384
0.28033146921
0.279655674533
0.279053636881
0.278527070103
0.278040412104
0.277607197362
0.277221610466
0.276880456533
0.276579768354
0.276314877748
0.276081302467
0.275875608143
0.27569535948
0.275570460284
56.1971337862
56.1971337862
56.1971337862
56.1971337862
56.1971337862
56.1971337862
56.1971337862
56.1971337862
56.1971337862
56.1971337862
56.1971337862
56.1971337862
56.1971337862
56.1971337862
56.1971337862
56.197133786
56.1971337794
56.197133394
56.1971115218
56.1958964613
56.1469809766
24.9345033606
10.8217812766
4.94478196147
2.61742288703
1.42227432498
0.81377840667
0.548013253924
0.456690350543
0.428306725963
0.416715275291
0.409088499383
0.402528946859
0.396452129742
0.390734811113
0.385341791693
0.380254436141
0.375456919757
0.370936946994
0.366679911048
0.362673801718
0.35890644267
0.355365752375
0.352040146646
0.348914859651
0.34601726134
0.343313167241
0.340760715945
0.33838076255
0.336161985542
0.334096960486
0.332179108115
0.330401508996
0.328755493859
0.327233743042
0.325829641267
0.324538968751
0.323357658136
0.322279678267
0.321298367941
0.320408729339
0.319605666221
0.318886822544
0.318248648728
0.317688684416
0.317203183175
0.316788178986
0.316440813155
0.316158778915
0.315976973658
56.1971337875
56.1971337875
56.1971337874
56.1971337874
56.1971337874
56.1971337874
56.1971337874
56.1971337874
56.1971337874
56.1971337874
56.1971337874
56.1971337874
56.1971337874
56.1971337874
56.1971337874
56.1971337871
56.1971337716
56.1971328893
56.1970834489
56.194389129
56.0909816213
19.2002979387
9.28798085758
4.17241665231
2.25239063228
1.25393124275
0.769788919975
0.577293188234
0.515273023123
0.494313223575
0.483586203106
0.475322206679
0.467818842869
0.460739799884
0.454009919712
0.447603830993
0.441505251525
0.435702140614
0.430182329086
0.424934732964
0.41994818511
0.415212431347
0.410717566976
0.406456589089
0.402421706705
0.398602475108
0.394989679383
0.391577056914
0.388356674387
0.385321248382
0.382463652659
0.379780790144
0.377267803205
0.374916685866
0.372721624378
0.370677144781
0.368781559412
0.367031201868
0.365421394949
0.363946607045
0.362601436639
0.361383504749
0.360309805833
0.359339680995
0.35849253294
0.357763567269
0.357149132775
0.356646387236
0.35625319842
0.356010093432
56.1971337884
56.1971337884
56.1971337884
56.1971337884
56.1971337884
56.1971337884
56.1971337884
56.1971337884
56.1971337884
56.1971337884
56.1971337884
56.1971337884
56.1971337884
56.1971337884
56.1971337884
56.1971337875
56.1971337381
56.197130913
56.196972348
56.1897576908
47.9910207468
16.9176915219
7.9284947442
3.59717736092
1.97462206035
1.14200217022
0.762635790774
0.624067850689
0.579872844649
0.562634315316
0.55185190685
0.542718554092
0.534180766485
0.526036432846
0.518238388473
0.510768423961
0.503612071742
0.496759680821
0.490199747669
0.483922381962
0.477918156018
0.472177951645
0.466695575066
0.461461938506
0.456470012061
0.451712253343
0.447181977791
0.442874016045
0.438781684523
0.434898758019
0.431221148408
0.42774720845
0.424490629572
0.421403538903
0.418509407526
0.415801544004
0.413276773102
0.410932274334
0.40876691715
0.406778192053
0.404963317965
0.403318066459
0.401840669638
0.400530638108
0.399386605185
0.398406191518
0.397586578682
0.396925067472
0.396419068713
0.396115199378
56.1971337892
56.1971337892
56.1971337892
56.1971337892
56.1971337892
56.1971337892
56.1971337892
56.1971337892
56.1971337892
56.1971337892
56.1971337892
56.1971337892
56.1971337892
56.1971337892
56.1971337891
56.1971337868
56.1971336545
56.1971260936
56.1967015101
56.1786986402
35.951510716
13.0994541641
6.5273121798
3.1372300591
1.75851587338
1.07216328054
0.780713159327
0.680596526055
0.647278582998
0.631806545524
0.620576407219
0.610448390502
0.60086233541
0.591647188135
0.582775226908
0.574233916279
0.566014498594
0.558107269552
0.550502411469
0.543191573499
0.53616656015
0.529421714424
0.522972482159
0.516758237575
0.510807108415
0.505109016597
0.499661126479
0.494459076009
0.489495978599
0.484766341428
0.48026805986
0.475999001307
0.471958462009
0.468145994263
0.464556343738
0.461183906482
0.458028881162
0.455092924731
0.452376546993
0.449877560744
0.447613911549
0.445537906981
0.443675131675
0.442023930474
0.440584483146
0.439354387879
0.438330170278
0.437509066978
0.436888698054
0.436523688248
56.1971337898
56.1971337898
56.1971337898
56.1971337898
56.1971337898
56.1971337898
56.1971337898
56.1971337898
56.1971337898
56.1971337898
56.1971337898
56.1971337898
56.1971337898
56.1971337898
56.1971337897
56.1971337833
56.1971334197
56.1971129055
56.195979863
56.1508197001
25.8104689318
11.0121193672
5.10336230284
2.75781807722
1.59272155442
1.03635148078
0.816261196005
0.742864308979
0.71611199881
0.701303914482
0.689331210081
0.678206638404
0.667537036053
0.657239712672
0.647292132526
0.637683563037
0.628404390583
0.619448727452
0.610808372668
0.602473514115
0.594439676484
0.586701326242
0.579250663261
0.572082737499
0.56519277464
0.55857464223
0.552228503268
0.546150185188
0.540332788515
0.534773658632
0.529472775168
0.524454854173
0.519666895232
0.515138956885
0.510864554172
0.506842817643
0.503074058988
0.499561670726
0.496306502537
0.493305572341
0.49055546397
0.488058931375
0.485819039658
0.483837224206
0.482111172972
0.480636130874
0.479409268125
0.478430097221
0.477698018942
0.477275653058
56.1971337903
56.1971337903
56.1971337903
56.1971337903
56.1971337903
56.1971337903
56.1971337903
56.1971337903
56.1971337903
56.1971337903
56.1971337903
56.1971337903
56.1971337903
56.1971337903
56.19713379
56.1971337757
56.1971329625
56.1970875897
56.1946243842
56.101135124
19.6815931893
9.61251575171
4.38889980762
2.44543159236
1.47008624677
1.02854384474
0.86424249279
0.808992276353
0.786014370003
0.771078595688
0.758125913753
0.745878506751
0.734076416101
0.722661415198
0.711618261109
0.70093102756
0.690591980173
0.680594423104
0.670929662381
0.661588939499
0.652564160028
0.643852522238
0.635447781973
0.627342621065
0.619566323182
0.612046248972
0.604822935526
0.597890150395
0.591241470929
0.584878494788
0.578799783346
0.573004723539
0.567496410156
0.562272304038
0.557334670943
0.552685392993
0.548354000442
0.544279454375
0.540500319013
0.537015447887
0.533823138231
0.530924797091
0.528322953454
0.526018576727
0.524009672206
0.522295351885
0.520873879901
0.519743761269
0.518902652818
0.51842152118
56.1971337908
56.1971337908
56.1971337908
56.1971337908
56.1971337908
56.1971337908
56.1971337908
56.1971337908
56.1971337908
56.1971337908
56.1971337908
56.1971337907
56.1971337907
56.1971337907
56.19713379
56.1971337477
56.1971313514
56.1969979953
56.1908623351
49.8181097768
17.4279664644
8.28128838636
3.81540105813
2.18624806489
1.38494670431
1.04247343194
0.920507234533
0.877436344172
0.856451647495
0.840948317235
0.826886915027
0.813450167228
0.800475174957
0.787913088687
0.775750658415
0.763972737952
0.752566170165
0.741520907398
0.730866738519
0.720518984629
0.710514319709
0.700839661071
0.691493496874
0.682470052652
0.673761889814
0.665373284228
0.65730006176
0.64953869888
0.642086948192
0.63497950604
0.628144177585
0.621624795434
0.615418730073
0.609527908222
0.603952982195
0.598696993723
0.593762494119
0.589154009458
0.584872490869
0.580952835254
0.577329778052
0.574043571381
0.571092558108
0.568477741864
0.566198950623
0.564255477161
0.562646273943
0.561369940639
0.560423486021
0.559888278818
56.1971337911
56.1971337911
56.1971337911
56.1971337911
56.1971337911
56.1971337911
56.1971337911
56.1971337911
56.1971337911
56.1971337911
56.1971337911
56.1971337911
56.1971337911
56.1971337911
56.197133789
56.1971336703
56.1971270039
56.1967590358
56.1814344689
38.4295838464
14.2150361828
6.91218497207
3.33327715248
1.97654962131
1.33200438404
1.07268944313
0.981995193625
0.946982983676
0.92696560326
0.910649367343
0.895433353949
0.880800647909
0.866640440966
0.852962872685
0.839662439894
0.826775855975
0.814294069608
0.802200564371
0.790486401668
0.779146447094
0.768170017091
0.757549350509
0.747281552487
0.737395126476
0.727811416145
0.718570913127
0.709665758195
0.701099382156
0.692868789465
0.684973022961
0.677413558956
0.67023160679
0.66335071602
0.656815560896
0.650629634323
0.644795455225
0.639315849876
0.634192740374
0.629430531915
0.625033675263
0.621005592758
0.617381537326
0.614094489579
0.611184209929
0.608647218911
0.606484758254
0.604695995403
0.603278599598
0.602228383165
0.601638194788
56.1971337915
56.1971337915
56.1971337915
56.1971337915
56.1971337915
56.1971337915
56.1971337914
56.1971337914
56.1971337914
56.1971337914
56.1971337914
56.1971337914
56.1971337914
56.1971337913
56.1971337848
56.1971334135
56.1971127219
56.1959834155
56.1519239442
26.1237731287
11.1287823398
5.25530839194
2.92488399987
1.81191153938
1.30780209206
1.11522831856
1.04685850419
1.01706622693
0.997239135772
0.979964630932
0.963578816492
0.947794665484
0.93245467399
0.9175809357
0.903165108953
0.889186638628
0.875639334034
0.86250955655
0.849827651221
0.837495405554
0.82555735612
0.814004277414
0.802826087175
0.792023232988
0.781587552764
0.771553660734
0.761842546069
0.752496135424
0.743510509246
0.734890117538
0.726633745277
0.718740205064
0.711215641756
0.704105609694
0.69733231087
0.69094363271
0.684940979976
0.679328934215
0.674110806958
0.669290790149
0.664872650377
0.660859634587
0.657257254949
0.654105305933
0.651322011334
0.648950719984
0.646987481514
0.645432263207
0.644281371854
0.643640348241
56.1971337917
56.1971337917
56.1971337917
56.1971337917
56.1971337917
56.1971337917
56.1971337917
56.1971337917
56.1971337917
56.1971337917
56.1971337917
56.1971337917
56.1971337917
56.1971337914
56.1971337744
56.1971328295
56.1970811247
56.1943321929
56.0936121936
19.392935779
9.52988980409
4.44257957796
2.58652981265
1.69254955183
1.30894492682
1.16742777986
1.11444788799
1.08760418855
1.0673884827
1.04897794042
1.03134784875
1.01429904489
0.997772766683
0.981752049453
0.966259120687
0.951192490166
0.936588408466
0.922430416423
0.908709811306
0.895415591615
0.882537829948
0.870116398944
0.858052385218
0.846387897999
0.835115488655
0.824236299555
0.813747269011
0.803687823991
0.79397496957
0.784655122107
0.775725960518
0.767189582871
0.759051570627
0.751313560702
0.74402536342
0.737106815663
0.730606556464
0.724529275043
0.718877616098
0.713656387956
0.708872243117
0.704529701849
0.700627422396
0.697207355355
0.694189775837
0.691617575594
0.68948952733
0.687804151271
0.686557056978
0.685868623284
56.197133792
56.197133792
56.197133792
56.197133792
56.197133792
56.197133792
56.197133792
56.197133792
56.197133792
56.197133792
56.197133792
56.197133792
56.1971337919
56.1971337908
56.1971337269
56.1971301753
56.1969360071
56.1885556034
46.5537157548
16.6943451504
7.99445699891
3.80349088969
2.31258063334
1.61444873614
1.33034014179
1.22641721497
1.18373397372
1.15827491002
1.13723660424
1.11756815394
1.09864881108
1.08033817999
1.06265708537
1.04546219578
1.02880536457
1.01265600292
0.997002671789
0.981881548747
0.967177275714
0.95292959196
0.939133104004
0.925772091014
0.912897720051
0.900395872696
0.888317266067
0.876661142655
0.865419168972
0.854588348632
0.84422359409
0.834227587162
0.824654788328
0.815501317152
0.806776880662
0.798481438572
0.790665353393
0.783246886179
0.776277143499
0.769757817628
0.763696365575
0.758098578421
0.752967942388
0.748308434899
0.744121871259
0.740454376368
0.737217541154
0.734457242932
0.732172180578
0.730360110248
0.729017010973
0.728279570577
56.1971337922
56.1971337922
56.1971337922
56.1971337922
56.1971337922
56.1971337922
56.1971337922
56.1971337922
56.1971337922
56.1971337922
56.1971337922
56.1971337922
56.1971337921
56.1971337879
56.1971335542
56.1971206944
56.1964267007
56.1693281376
31.6516737306
12.1186752783
6.21641120481
3.2786021154
2.1002975188
1.5723078855
1.36681907897
1.28968710293
1.25354557967
1.22859007028
1.20654324588
1.18559574039
1.1654448529
1.14588200343
1.12693491246
1.10858351832
1.09085426173
1.07361904437
1.05692652788
1.04074903821
1.02513098611
1.00995290642
0.99525813507
0.981028735933
0.967264892305
0.954008863444
0.941147680627
0.92873873408
0.916771993922
0.905247355593
0.894218687594
0.883579031099
0.873391850645
0.863652917657
0.854365737398
0.845539978845
0.837228222385
0.829336300141
0.821920439058
0.814986982038
0.808542268024
0.802588633909
0.797132699689
0.792174946377
0.787768500842
0.783818141667
0.780376705626
0.777439211124
0.775006414398
0.773074699896
0.771638866586
0.770854585136
56.1971337924
56.1971337924
56.1971337924
56.1971337924
56.1971337924
56.1971337924
56.1971337924
56.1971337924
56.1971337924
56.1971337924
56.1971337924
56.1971337923
56.1971337921
56.1971337777
56.197132987
56.1970901035
56.1948240693
56.1125687334
20.4815320359
10.0612439063
4.78936336336
2.85572055138
1.9482760621
1.56155700221
1.41475552151
1.35585281393
1.32352828728
1.29831177206
1.27517068206
1.25293057203
1.23144610106
1.21065093376
1.19057877373
1.17107724462
1.15219495774
1.13396276972
1.11624020376
1.09908332396
1.0824604256
1.06642924809
1.0508501019
1.03578131052
1.021208839
1.00717515296
0.993560681603
0.980430318298
0.967773056284
0.955582344629
0.943919911216
0.932673695487
0.921902047549
0.911610168474
0.901798851355
0.892526935787
0.883689402353
0.875353461463
0.867522123913
0.860200091437
0.853393067464
0.847104684292
0.841390824276
0.836153429774
0.831449522436
0.827279814442
0.823644382264
0.820541781096
0.81796991192
0.815925069775
0.814401765384
0.81357617297
56.1971337925
56.1971337925
56.1971337925
56.1971337925
56.1971337925
56.1971337925
56.1971337925
56.1971337925
56.1971337925
56.1971337925
56.1971337925
56.1971337925
56.1971337914
56.1971337291
56.197130314
56.1969462853
56.1890918323
47.4846483128
16.9983940316
8.25017737312
4.0036040251
2.52743401238
1.85131694861
1.576630359
1.47136834433
1.42399201989
1.39352868275
1.36748783536
1.34297845276
1.31940420417
1.29669830412
1.27467495364
1.25336198874
1.23280339254
1.21283780779
1.19350790585
1.17486086311
1.15674647832
1.13920845512
1.12223860542
1.10587945944
1.08998772684
1.07463020235
1.0598482791
1.04551824148
1.0316980055
1.0183795117
1.00556168236
0.993296474477
0.981474182135
0.970157701651
0.95934669306
0.949042385639
0.939306841982
0.930031054854
0.921278056824
0.913059226159
0.905377393396
0.898234438301
0.891695464813
0.885646353698
0.880152792207
0.875215715198
0.870838314505
0.867020617985
0.863760698932
0.861056300133
0.858901869816
0.857292291506
0.856425999139
56.1971337927
56.1971337927
56.1971337927
56.1971337927
56.1971337927
56.1971337927
56.1971337927
56.1971337927
56.1971337927
56.1971337927
56.1971337927
56.1971337926
56.1971337875
56.1971335073
56.19711839
56.196318103
56.166088037
30.4856761991
11.9785240274
6.25231688688
3.39306057942
2.28706249335
1.80130059991
1.61011090732
1.53307407114
1.49280425447
1.46282360305
1.43571458026
1.40994573817
1.38504448587
1.36099279385
1.33781767499
1.31533494751
1.29366661488
1.27264421284
1.25231392529
1.23270264351
1.21366711987
1.19524820469
1.17743024696
1.16026146949
1.14359949915
1.12749139848
1.11200446304
1.09698759723
1.08251314721
1.06856929459
1.05521565653
1.04231772152
1.02996071465
1.01813235415
1.00683447533
0.996131290305
0.985903886745
0.976222793987
0.967092031426
0.958512258421
0.950558572768
0.94310180489
0.93622263103
0.929917430332
0.924188612172
0.919039384844
0.914472650875
0.910488693275
0.907082071506
0.904312430026
0.902049305486
0.900355865672
0.899451321362
56.1971337928
56.1971337928
56.1971337928
56.1971337928
56.1971337928
56.1971337928
56.1971337928
56.1971337928
56.1971337928
56.1971337928
56.1971337928
56.1971337924
56.1971337716
56.19713265
56.1970733799
56.1940289417
55.9299232172
19.3075143924
9.64929931441
4.69341809853
2.93149381523
2.12580581478
1.78912649711
1.65684114051
1.59786830376
1.56144341473
1.5311181468
1.5028621196
1.47569565214
1.44957537185
1.42429068715
1.39993185787
1.37633510705
1.35352536673
1.3315524428
1.31023599644
1.28969527863
1.26976559716
1.25050356115
1.23194728303
1.21393590433
1.19653770607
1.17973281749
1.16357033744
1.14791662756
1.13282999057
1.11836740255
1.1043920319
1.09097551433
1.07810922338
1.06580013896
1.05411769288
1.04292556278
1.03230126476
1.02223974392
1.01282567487
1.00391977015
0.995597418329
0.987866274193
0.980730004958
0.974187645155
0.968241205486
0.962964288619
0.958220745087
0.954081889134
0.950539864083
0.947591128267
0.945232389255
0.943456255134
0.942514096427
56.1971337929
56.1971337929
56.1971337929
56.1971337929
56.1971337929
56.1971337929
56.1971337929
56.1971337929
56.1971337929
56.1971337929
56.1971337929
56.1971337905
56.1971336632
56.1971268534
56.1967685702
56.18282474
40.2151083851
15.2552878121
7.58102729358
3.86068815583
2.59617677652
2.03342946378
1.80613937878
1.71271848558
1.66452670173
1.62955790624
1.59832714272
1.56868902081
1.54027696897
1.512883846
1.48639541322
1.46082893346
1.43622782358
1.41238643494
1.38943779014
1.36718878051
1.34576830164
1.32498938595
1.30491790783
1.28559131557
1.266853546
1.24876050157
1.23136575054
1.21450694379
1.19825861028
1.18260217806
1.16760205852
1.15311491737
1.13921152492
1.12595991502
1.11321672464
1.10105654216
1.08947726912
1.07848443512
1.06815803766
1.05835239207
1.04915323338
1.04056412711
1.03257870305
1.02527425793
1.01851398814
1.0123780098
1.00685986622
1.00196326347
0.997684156411
0.994017952149
0.990960851161
0.988508589711
0.986653663909
0.985678077127
56.197133793
56.197133793
56.197133793
56.197133793
56.197133793
56.197133793
56.197133793
56.197133793
56.197133793
56.197133793
56.1971337928
56.1971337791
56.1971330471
56.1970944582
56.1951112318
56.1261445807
22.051024557
10.5811037207
5.2554187299
3.25975949896
2.37225984481
1.99473160296
1.84244223672
1.77360970904
1.73128627644
1.6964199645
1.66410777859
1.63313042822
1.6034250955
1.57473997488
1.54717644286
1.52051728577
1.49489031095
1.47007322843
1.44620130757
1.42307221087
1.40082085355
1.37925900232
1.35842831066
1.33839869524
1.31897736989
1.30031044418
1.28222217536
1.26477876633
1.24797270642
1.23187560899
1.21631021791
1.20135640721
1.18708690704
1.17334573608
1.16021356962
1.14768348179
1.13584088803
1.12451794748
1.11381694375
1.10373449978
1.09427120303
1.08551567952
1.07730291285
1.0697218885
1.06277481182
1.05646567106
1.05079366306
1.04575039988
1.04141729464
1.03763231913
1.03447289981
1.03193094265
1.02999839723
1.02898949927
56.1971337931
56.1971337931
56.1971337931
56.1971337931
56.1971337931
56.1971337931
56.1971337931
56.1971337931
56.1971337931
56.1971337931
56.1971337914
56.197133699
56.1971288132
56.1968748044
56.1868465825
44.8676165892
16.5352638306
8.20652316294
4.18733147268
2.84094788631
2.24268673627
1.99608740485
1.89197528359
1.83721483862
1.79728488413
1.761826434
1.72826040972
1.69599023287
1.66504719957
1.63518064671
1.60651474999
1.57881416582
1.5522146418
1.52657027176
1.50175249397
1.47780213107
1.45478748687
1.43248150141
1.41104717964
1.39027630725
1.37023564476
1.35098063056
1.33233242712
1.3144471809
1.29713835228
1.28048309542
1.26446027697
1.24916953557
1.2344224974
1.22031388575
1.20691540669
1.19405806592
1.18183019652
1.17023051616
1.15935099003
1.14902242624
1.1393344061
1.13028667263
1.12188382872
1.11412432286
1.10710135793
1.10063863655
1.09482777511
1.08966300186
1.08513845905
1.08125369673
1.0780019604
1.07537468834
1.07336345937
1.0723207393
56.1971337932
56.1971337932
56.1971337932
56.1971337932
56.1971337932
56.1971337932
56.1971337932
56.1971337932
56.1971337932
56.197133793
56.1971337808
56.1971331381
56.1970996816
56.1954006822
56.1371203371
23.6756728117
10.9670461019
5.59207630389
3.4738003173
2.57026879858
2.18373927022
2.02385527099
1.94872684355
1.90126726571
1.86188206564
1.82538291911
1.79046196799
1.75705305176
1.72494892014
1.69400574363
1.66431609412
1.6357368376
1.6081291211
1.58162666729
1.55599265663
1.53138939401
1.5075673537
1.4846921586
1.46253399583
1.44116878004
1.42065613866
1.40078621321
1.38172961709
1.36328472164
1.34553191399
1.32854758928
1.3121325911
1.29638722652
1.2812955955
1.26695088133
1.25315894387
1.24001575485
1.22761101674
1.21576947695
1.20458166162
1.19404865987
1.18416547265
1.1750325274
1.16646595167
1.15856289584
1.15131596763
1.14472924823
1.13879794841
1.13361210618
1.12898599418
1.1250100075
1.12167418553
1.11896938692
1.11688366428
1.11581060206
56.1971337933
56.1971337933
56.1971337933
56.1971337933
56.1971337933
56.1971337933
56.1971337933
56.1971337933
56.1971337933
56.1971337913
56.1971336893
56.1971283834
56.1968572313
56.1864402923
44.5319422808
16.5464520849
8.30632010156
4.31815392004
2.99993374413
2.41820318331
2.17489507788
2.06792259893
2.00878335635
1.96434983574
1.9245074223
1.88682603833
1.85079715211
1.81614782442
1.78298415576
1.75112313922
1.72039942581
1.69095635516
1.66252960229
1.63525249557
1.60899028599
1.5835874967
1.55922163476
1.5356409868
1.51291886954
1.49112052491
1.47001456517
1.44978231155
1.43019461973
1.41134064335
1.3932989085
1.37586188676
1.35911596175
1.34315475899
1.32776950455
1.31305491361
1.2991133429
1.2857348093
1.27302418773
1.26097537004
1.24969564188
1.23898334818
1.22894871355
1.21957767573
1.21087264053
1.20294107723
1.19557844294
1.1888892709
1.18286450733
1.17749912005
1.17279098306
1.16873260613
1.1653114398
1.16262699835
1.16046038278
1.1593574363
56.1971337934
56.1971337934
56.1971337934
56.1971337934
56.1971337934
56.1971337934
56.1971337934
56.1971337934
56.1971337931
56.1971337765
56.1971329173
56.1970891303
56.1949179285
56.1235109436
21.9326518202
10.6945987607
5.5144589361
3.5500516317
2.71082110634
2.35125737708
2.19761126263
2.12078536687
2.06947282339
2.02566091819
1.98486903416
1.94601596797
1.90884620544
1.87314189359
1.83901563783
1.8062505761
1.7747932015
1.74445943728
1.71540357724
1.68734286127
1.66044920653
1.63444851233
1.60952308154
1.58541397496
1.56229555049
1.53992322921
1.5184843384
1.4977443937
1.47789487177
1.45869548307
1.44023157229
1.4225980363
1.40557457964
1.38925192233
1.37373439319
1.35880130977
1.3445566842
1.33099769654
1.318216893
1.30602008534
1.29449765256
1.28365253627
1.27359688212
1.26411763301
1.25531721316
1.24718828761
1.23973781404
1.23295870098
1.22696484171
1.22152316995
1.21674266704
1.2126093286
1.20911715411
1.20625618638
1.20401662684
1.20288481384
56.1971337935
56.1971337935
56.1971337935
56.1971337935
56.1971337935
56.1971337935
56.1971337935
56.1971337934
56.19713379
56.197133613
56.1971246226
56.196676059
56.1806757179
38.7556015728
15.2052892153
7.87602681149
4.24461899804
3.0720961883
2.55912699748
2.34054332036
2.23845238247
2.17718874382
2.12867166867
2.08448426023
2.04267124775
2.00276284836
1.96460218486
1.92806259712
1.8930471841
1.85937365141
1.82718080739
1.79627636668
1.76647229053
1.73794069657
1.71039061399
1.68399435446
1.65859745219
1.63404405009
1.61040369286
1.58776437806
1.56585788409
1.54489436721
1.524616011
1.50523836772
1.48650979173
1.46853132276
1.45140616653
1.43488692365
1.41907823427
1.40409389741
1.38970079134
1.37600270601
1.36299374131
1.35079757634
1.33917198153
1.32824405103
1.31800198709
1.308440451
1.29968680425
1.2914919211
1.28397895693
1.27714402648
1.27098433941
1.2654820887
1.26075517147
1.25655756495
1.25300203549
1.25007460351
1.24775845606
1.24659692929
56.1971337935
56.1971337935
56.1971337935
56.1971337935
56.1971337935
56.1971337935
56.1971337935
56.1971337928
56.1971337569
56.1971318966
56.1970371018
56.1927054828
54.1815497748
19.0086422553
9.78652852505
5.13247771098
3.50806642811
2.80246370222
2.49914610225
2.36277943354
2.28804379314
2.23357069565
2.18557483775
2.14060987535
2.09783063685
2.05700444516
2.01787379279
1.98054822983
1.94480993636
1.91057364837
1.8777348503
1.84612684442
1.81590474606
1.78676721383
1.75887921845
1.73207017936
1.70617095523
1.68137845491
1.65741786716
1.63447844988
1.6122973524
1.59096561352
1.57058125942
1.55087197442
1.53206405869
1.5139083203
1.49649445608
1.47994640748
1.46401472797
1.44880247937
1.43431262701
1.4206487678
1.40756521603
1.39518839323
1.3836301561
1.37264235968
1.36235924122
1.35276360666
1.34384550918
1.3357457436
1.32819415803
1.32132345074
1.31512086563
1.30958092997
1.30469184729
1.30044139233
1.29681741367
1.29394648682
1.29154634599
1.29035369967
56.1971337936
56.1971337936
56.1971337936
56.1971337936
56.1971337936
56.1971337936
56.1971337934
56.1971337829
56.1971332514