/*--------------------------------*- C++ -*----------------------------------*\
| =========                 |                                                 |
| \\      /  F ield         | foam-extend: Open Source CFD                    |
|  \\    /   O peration     | Version:     4.1                                |
|   \\  /    A nd           | Web:         http://www.foam-extend.org         |
|    \\/     M anipulation  |                                                 |
\*---------------------------------------------------------------------------*/
FoamFile
{
    version     2.0;
    format      ascii;
    class       volScalarField;
    location    "0.0008";
    object      mu;
}
// * * * * * * * * * * * * * * * * * * * * * * * * * * * * * * * * * * * * * //

dimensions      [1 -1 -1 0 0 0 0];

internalField   nonuniform List<scalar> 
8400
(
1.68899961491e-05
1.68899961491e-05
1.68899961491e-05
1.68899961491e-05
1.68899961491e-05
1.68899961491e-05
1.68899961491e-05
1.68899961491e-05
1.68899961491e-05
1.68899961491e-05
1.68899961491e-05
1.68899961491e-05
1.68899961491e-05
1.68899961491e-05
1.68899961491e-05
1.68899961491e-05
1.68899961491e-05
1.68899961492e-05
1.6889996152e-05
1.68899963134e-05
1.68900051123e-05
1.68904860425e-05
1.68962449302e-05
7.30739564468e-05
0.000155213968972
0.000191655632657
0.000101522253573
7.07487009084e-05
6.03866393739e-05
5.70658089836e-05
5.6007734263e-05
5.56292355171e-05
5.54744787462e-05
5.53726812024e-05
5.52888832466e-05
5.52134182844e-05
5.51435085791e-05
5.50770783878e-05
5.50128512919e-05
5.49499648911e-05
5.48875584769e-05
5.48250681345e-05
5.47618682133e-05
5.46971836432e-05
5.46303744023e-05
5.45722693313e-05
5.45000672158e-05
5.44249258084e-05
5.43462909441e-05
5.42640436679e-05
5.41781672736e-05
5.40887845742e-05
5.39961061239e-05
5.39004366154e-05
5.38029206731e-05
5.37035848694e-05
5.36032384707e-05
5.3502798159e-05
5.34033254392e-05
5.33059903652e-05
5.32126383699e-05
5.31241268768e-05
5.30415245328e-05
5.29661176221e-05
5.28992044586e-05
5.28416656829e-05
5.27944541717e-05
5.27583163505e-05
5.2733748399e-05
5.27029550685e-05
1.6889996149e-05
1.6889996149e-05
1.6889996149e-05
1.6889996149e-05
1.6889996149e-05
1.6889996149e-05
1.6889996149e-05
1.6889996149e-05
1.6889996149e-05
1.6889996149e-05
1.6889996149e-05
1.6889996149e-05
1.6889996149e-05
1.6889996149e-05
1.6889996149e-05
1.6889996149e-05
1.6889996149e-05
1.68899961493e-05
1.68899961643e-05
1.68899970006e-05
1.68900440999e-05
1.68911133657e-05
2.35085843731e-05
9.59322960131e-05
0.000177929985818
0.000144730043125
8.46831761874e-05
6.44363012051e-05
5.78779879745e-05
5.58558575203e-05
5.52390603625e-05
5.50538955385e-05
5.49665989784e-05
5.49125067498e-05
5.48624395254e-05
5.48125326506e-05
5.47621404305e-05
5.47104389293e-05
5.46572771375e-05
5.45911778114e-05
5.45344791147e-05
5.44752810673e-05
5.44134126689e-05
5.43485970895e-05
5.42805934373e-05
5.42091342868e-05
5.41340671852e-05
5.40553619748e-05
5.39734154272e-05
5.38877028358e-05
5.37983765806e-05
5.37058107331e-05
5.36102570977e-05
5.35121660776e-05
5.34128570104e-05
5.33123809317e-05
5.32115401637e-05
5.31113057207e-05
5.30127131256e-05
5.29169580472e-05
5.28257804133e-05
5.27396723904e-05
5.26597751498e-05
5.25871860218e-05
5.2522940399e-05
5.24679486253e-05
5.24229937196e-05
5.23886724219e-05
5.23653842212e-05
5.23395637036e-05
1.68899961489e-05
1.68899961489e-05
1.68899961489e-05
1.68899961489e-05
1.68899961489e-05
1.68899961489e-05
1.68899961489e-05
1.68899961489e-05
1.68899961489e-05
1.68899961489e-05
1.68899961489e-05
1.68899961489e-05
1.68899961489e-05
1.68899961489e-05
1.68899961489e-05
1.68899961489e-05
1.6889996149e-05
1.68899961504e-05
1.68899962361e-05
1.68900009643e-05
1.68902655979e-05
1.68938618138e-05
5.28500318491e-05
0.000145716897557
0.000215740868247
0.000110639744293
7.30420410816e-05
6.03770091134e-05
5.63894698376e-05
5.52098953834e-05
5.48730311452e-05
5.47731952938e-05
5.4733734588e-05
5.47027516354e-05
5.4671278295e-05
5.46375553961e-05
5.45898855416e-05
5.45506976105e-05
5.45081959623e-05
5.44623332373e-05
5.44129277363e-05
5.43598693453e-05
5.43029533913e-05
5.42420473768e-05
5.41770080783e-05
5.41077492021e-05
5.40348064714e-05
5.39575961151e-05
5.38761951456e-05
5.37908893682e-05
5.37019354818e-05
5.36096023204e-05
5.35147120172e-05
5.34179473021e-05
5.33195530639e-05
5.32202970866e-05
5.31210841572e-05
5.30228669229e-05
5.29270866138e-05
5.28347278391e-05
5.27465350683e-05
5.2663576249e-05
5.25869062071e-05
5.25175198684e-05
5.24563222052e-05
5.24041005523e-05
5.2361778591e-05
5.23295526363e-05
5.23076821865e-05
5.22850496393e-05
1.68899961489e-05
1.68899961489e-05
1.68899961489e-05
1.68899961489e-05
1.68899961489e-05
1.68899961489e-05
1.68899961489e-05
1.68899961489e-05
1.68899961489e-05
1.68899961489e-05
1.68899961489e-05
1.68899961489e-05
1.68899961489e-05
1.68899961489e-05
1.68899961489e-05
1.68899961489e-05
1.6889996149e-05
1.6889996155e-05
1.68899964997e-05
1.68900158986e-05
1.68907176035e-05
1.8662094386e-05
8.44759511507e-05
0.000165037154309
0.000166707457
9.17250671764e-05
6.6645022855e-05
5.83870254926e-05
5.58403917181e-05
5.51033594103e-05
5.48900558404e-05
5.48131103047e-05
5.47742915536e-05
5.47400760626e-05
5.4705164871e-05
5.46684686995e-05
5.46182244467e-05
5.45767281587e-05
5.45322740951e-05
5.44845110238e-05
5.44332081598e-05
5.43781392577e-05
5.43191064927e-05
5.42559280919e-05
5.41884793565e-05
5.41166812775e-05
5.40409605511e-05
5.39611539129e-05
5.38771931082e-05
5.37893516275e-05
5.36980371714e-05
5.36035968895e-05
5.35067183573e-05
5.34084850753e-05
5.33089677381e-05
5.32089988407e-05
5.31095149613e-05
5.30114944716e-05
5.2916156518e-05
5.28247803683e-05
5.27378052494e-05
5.26562650453e-05
5.25811359808e-05
5.25133729112e-05
5.24538066144e-05
5.24031145003e-05
5.23618107324e-05
5.23305194763e-05
5.23092665524e-05
5.2288236438e-05
1.68899961489e-05
1.68899961489e-05
1.68899961489e-05
1.68899961489e-05
1.68899961489e-05
1.68899961489e-05
1.68899961489e-05
1.68899961489e-05
1.68899961489e-05
1.68899961489e-05
1.68899961489e-05
1.68899961489e-05
1.68899961489e-05
1.68899961489e-05
1.68899961489e-05
1.68899961489e-05
1.68899961493e-05
1.68899961731e-05
1.68899975018e-05
1.68900730809e-05
1.68915271364e-05
2.84844032466e-05
0.000108065698101
0.000189637874169
0.000133430721252
8.09181829945e-05
6.32130491214e-05
5.75481435362e-05
5.5822537475e-05
5.53082607843e-05
5.5149906081e-05
5.5069946525e-05
5.5017623005e-05
5.49681761606e-05
5.49186376922e-05
5.48681103982e-05
5.48163114248e-05
5.47630127525e-05
5.4696288295e-05
5.46381411806e-05
5.45769278653e-05
5.45125575813e-05
5.44446148009e-05
5.43729012252e-05
5.42972728436e-05
5.42176276147e-05
5.41339592509e-05
5.40464041948e-05
5.3955688545e-05
5.38614296633e-05
5.37640144978e-05
5.36640406976e-05
5.35619687736e-05
5.3458520814e-05
5.33549576199e-05
5.32514545187e-05
5.31489863672e-05
5.30486052372e-05
5.29510863975e-05
5.28685510336e-05
5.27802968702e-05
5.26978998868e-05
5.26222261135e-05
5.25543359073e-05
5.24949596994e-05
5.24445244561e-05
5.24034487947e-05
5.23720619716e-05
5.23506247717e-05
5.23302006722e-05
1.68899961488e-05
1.68899961488e-05
1.68899961488e-05
1.68899961488e-05
1.68899961488e-05
1.68899961488e-05
1.68899961488e-05
1.68899961488e-05
1.68899961488e-05
1.68899961488e-05
1.68899961488e-05
1.68899961488e-05
1.68899961488e-05
1.68899961488e-05
1.68899961488e-05
1.68899961489e-05
1.68899961503e-05
1.68899962309e-05
1.68900006904e-05
1.68902508828e-05
1.68937122717e-05
5.12133826638e-05
0.000144785882041
0.000217579759988
0.000112524422706
7.42836957711e-05
6.13966337226e-05
5.73203910016e-05
5.60807618663e-05
5.57000301516e-05
5.55579508926e-05
5.54764515432e-05
5.54057336614e-05
5.5337367091e-05
5.52697407207e-05
5.52015510975e-05
5.51323594043e-05
5.50617957843e-05
5.49894575943e-05
5.49150197375e-05
5.48382181827e-05
5.47592014631e-05
5.46771189457e-05
5.45919866925e-05
5.44926034568e-05
5.44008904786e-05
5.43167300812e-05
5.42179931631e-05
5.41161573323e-05
5.40112934871e-05
5.39045384136e-05
5.37957958898e-05
5.36855797098e-05
5.35745334992e-05
5.34633195077e-05
5.33531866942e-05
5.32451291405e-05
5.31397267709e-05
5.30379361731e-05
5.29406277823e-05
5.2848664397e-05
5.2763268854e-05
5.26853560094e-05
5.26154580568e-05
5.25543199999e-05
5.25024818006e-05
5.24604566058e-05
5.24283950061e-05
5.2406497788e-05
5.23863173153e-05
1.68899961488e-05
1.68899961488e-05
1.68899961488e-05
1.68899961488e-05
1.68899961488e-05
1.68899961488e-05
1.68899961488e-05
1.68899961488e-05
1.68899961488e-05
1.68899961488e-05
1.68899961488e-05
1.68899961488e-05
1.68899961488e-05
1.68899961488e-05
1.68899961488e-05
1.68899961489e-05
1.68899961521e-05
1.68899963363e-05
1.68900063985e-05
1.68905538337e-05
1.68970402159e-05
7.69286028314e-05
0.000157801070968
0.000184841080319
9.91113114713e-05
7.01627733607e-05
6.05424660615e-05
5.75175143418e-05
5.65848457516e-05
5.62728131677e-05
5.61234897973e-05
5.60196543096e-05
5.59239576278e-05
5.58313235408e-05
5.57396822446e-05
5.56482731333e-05
5.55567935809e-05
5.54646270296e-05
5.53714820582e-05
5.52777822299e-05
5.51822658489e-05
5.50846245533e-05
5.49845761508e-05
5.48819234897e-05
5.47767918904e-05
5.4669372192e-05
5.45590876436e-05
5.44462790747e-05
5.43310028557e-05
5.42133868347e-05
5.40938720414e-05
5.39729746884e-05
5.38518186417e-05
5.37309234143e-05
5.36106174664e-05
5.34917777916e-05
5.33753495349e-05
5.32627133957e-05
5.31546949343e-05
5.30518265372e-05
5.29549162221e-05
5.2864729437e-05
5.27941238515e-05
5.27206045951e-05
5.26565556422e-05
5.26023001141e-05
5.2558176202e-05
5.25244425291e-05
5.25013348162e-05
5.24806904624e-05
1.68899961488e-05
1.68899961488e-05
1.68899961488e-05
1.68899961488e-05
1.68899961488e-05
1.68899961488e-05
1.68899961488e-05
1.68899961488e-05
1.68899961488e-05
1.68899961488e-05
1.68899961488e-05
1.68899961488e-05
1.68899961488e-05
1.68899961488e-05
1.68899961488e-05
1.6889996149e-05
1.68899961594e-05
1.68899967426e-05
1.68900295697e-05
1.68909241574e-05
2.10034635848e-05
9.04818561364e-05
0.000171428715497
0.000156224919203
8.99486894965e-05
6.76418902211e-05
6.03069482703e-05
5.79950125888e-05
5.72507345082e-05
5.69768435643e-05
5.68085709864e-05
5.66772771333e-05
5.65531989485e-05
5.6432169345e-05
5.63131556993e-05
5.61952191203e-05
5.60778880857e-05
5.59607048565e-05
5.58438319633e-05
5.57266197066e-05
5.56083780481e-05
5.54888433309e-05
5.53676017545e-05
5.52453304828e-05
5.51213381259e-05
5.49951858032e-05
5.48668671467e-05
5.47364432558e-05
5.46051465782e-05
5.44722367459e-05
5.43384794177e-05
5.42041216121e-05
5.40809567464e-05
5.39471957976e-05
5.38150670868e-05
5.36860114243e-05
5.35600888068e-05
5.34382829238e-05
5.33215681289e-05
5.3210828318e-05
5.31076050386e-05
5.30119610279e-05
5.29247800163e-05
5.28471071932e-05
5.27793837862e-05
5.2722048351e-05
5.26754625508e-05
5.26399018831e-05
5.26155697737e-05
5.25945347081e-05
1.68899961488e-05
1.68899961488e-05
1.68899961488e-05
1.68899961488e-05
1.68899961488e-05
1.68899961488e-05
1.68899961488e-05
1.68899961488e-05
1.68899961488e-05
1.68899961488e-05
1.68899961488e-05
1.68899961488e-05
1.68899961488e-05
1.68899961488e-05
1.68899961488e-05
1.68899961493e-05
1.68899961772e-05
1.68899977358e-05
1.68900862037e-05
1.68917204933e-05
3.04968298354e-05
0.00011365217764
0.000191686563981
0.000134612254086
8.33270625983e-05
6.60739423924e-05
6.0475988179e-05
5.8673984449e-05
5.80621837915e-05
5.77918116845e-05
5.76100054186e-05
5.74350361691e-05
5.72786284145e-05
5.71262883926e-05
5.6976535521e-05
5.68287693655e-05
5.66830348404e-05
5.65389079134e-05
5.6395570319e-05
5.62526720008e-05
5.61095188334e-05
5.59656285026e-05
5.58324994939e-05
5.56874681694e-05
5.5541229216e-05
5.53936274086e-05
5.52446803803e-05
5.50959342653e-05
5.49459739777e-05
5.47957482954e-05
5.46451537876e-05
5.44948145871e-05
5.43453701565e-05
5.41984324721e-05
5.40538220358e-05
5.39122507004e-05
5.37746157197e-05
5.36425045712e-05
5.35167751097e-05
5.33977159143e-05
5.3297645004e-05
5.31948616049e-05
5.31014730841e-05
5.30184794066e-05
5.29461913976e-05
5.28850090689e-05
5.28353002399e-05
5.27973295557e-05
5.27713325833e-05
5.27496479056e-05
1.68899961488e-05
1.68899961488e-05
1.68899961488e-05
1.68899961488e-05
1.68899961488e-05
1.68899961488e-05
1.68899961488e-05
1.68899961488e-05
1.68899961488e-05
1.68899961488e-05
1.68899961488e-05
1.68899961488e-05
1.68899961488e-05
1.68899961488e-05
1.68899961488e-05
1.68899961502e-05
1.68899962267e-05
1.68900004411e-05
1.68902352192e-05
1.68935560022e-05
4.88738313888e-05
0.000143089999975
0.000220526490043
0.000118096998412
7.86209897168e-05
6.52374068844e-05
6.08996434452e-05
5.94882961066e-05
5.89610508627e-05
5.86948846538e-05
5.84844239943e-05
5.82881417724e-05
5.80984009444e-05
5.79130830305e-05
5.77314836369e-05
5.75525508638e-05
5.73758611033e-05
5.72016579365e-05
5.70293552592e-05
5.68579489912e-05
5.66870581602e-05
5.65175831881e-05
5.63480546888e-05
5.6178682438e-05
5.60087829733e-05
5.58383146121e-05
5.56679617931e-05
5.549777878e-05
5.53273131652e-05
5.51568399143e-05
5.4987836763e-05
5.48313904846e-05
5.46661926648e-05
5.45036122742e-05
5.43447172885e-05
5.41897699967e-05
5.40397546555e-05
5.38956955511e-05
5.3759458108e-05
5.36308216266e-05
5.35105701963e-05
5.33996520255e-05
5.32991159179e-05
5.32102256183e-05
5.31329931427e-05
5.30675419943e-05
5.30142297717e-05
5.29735512948e-05
5.2945859018e-05
5.29236265684e-05
1.68899961488e-05
1.68899961488e-05
1.68899961488e-05
1.68899961488e-05
1.68899961488e-05
1.68899961488e-05
1.68899961488e-05
1.68899961488e-05
1.68899961488e-05
1.68899961488e-05
1.68899961488e-05
1.68899961488e-05
1.68899961488e-05
1.68899961488e-05
1.68899961488e-05
1.68899961519e-05
1.68899963231e-05
1.68900056418e-05
1.68905107517e-05
1.68965164384e-05
7.33982403566e-05
0.000155045433261
0.000195575700614
0.000106108815494
7.53504600503e-05
6.5007145432e-05
6.1629125687e-05
6.04690759359e-05
5.99892405494e-05
5.96988705105e-05
5.94513257617e-05
5.92168686297e-05
5.89890291567e-05
5.8766124384e-05
5.85490712665e-05
5.83356604952e-05
5.81255511643e-05
5.79196094069e-05
5.77162626953e-05
5.75150499082e-05
5.73152102933e-05
5.71170615575e-05
5.69203991079e-05
5.67241329864e-05
5.65410646517e-05
5.63458552758e-05
5.6151913199e-05
5.59590925114e-05
5.57668752317e-05
5.55759220305e-05
5.53873664092e-05
5.52011987904e-05
5.501801788e-05
5.48382256164e-05
5.46627069938e-05
5.44932221645e-05
5.43419357127e-05
5.41854010069e-05
5.40368700722e-05
5.38979078282e-05
5.37683694956e-05
5.36494971619e-05
5.35418602479e-05
5.34461288225e-05
5.33628720333e-05
5.32925042101e-05
5.32353493564e-05
5.31917048902e-05
5.31617637597e-05
5.3138192397e-05
1.68899961488e-05
1.68899961488e-05
1.68899961488e-05
1.68899961488e-05
1.68899961488e-05
1.68899961488e-05
1.68899961488e-05
1.68899961488e-05
1.68899961488e-05
1.68899961488e-05
1.68899961488e-05
1.68899961488e-05
1.68899961488e-05
1.68899961488e-05
1.68899961489e-05
1.68899961579e-05
1.68899966577e-05
1.68900244434e-05
1.68908634562e-05
1.996954404e-05
8.77762517118e-05
0.000167737355294
0.000166904479464
9.68598115844e-05
7.31968582206e-05
6.51958038392e-05
6.25623270431e-05
6.16006220559e-05
6.11284085324e-05
6.0803189918e-05
6.05101804527e-05
6.02296843046e-05
5.99588679676e-05
5.96948705015e-05
5.94382854216e-05
5.918771378e-05
5.89419835319e-05
5.87000437709e-05
5.84748406481e-05
5.82411017987e-05
5.80103183308e-05
5.77815163424e-05
5.75555384677e-05
5.73314326043e-05
5.71085738136e-05
5.6888278496e-05
5.66697859905e-05
5.64532469966e-05
5.62380811996e-05
5.60377173742e-05
5.58274655152e-05
5.56213893916e-05
5.54194003721e-05
5.52224047615e-05
5.50305915297e-05
5.48447929027e-05
5.46671387762e-05
5.44974893259e-05
5.43370011561e-05
5.41985049513e-05
5.4058360003e-05
5.39297138795e-05
5.38138712021e-05
5.37111691476e-05
5.36218483445e-05
5.35464816474e-05
5.34855113266e-05
5.34389990373e-05
5.34070624566e-05
5.33827513374e-05
1.68899961488e-05
1.68899961488e-05
1.68899961488e-05
1.68899961488e-05
1.68899961488e-05
1.68899961488e-05
1.68899961488e-05
1.68899961488e-05
1.68899961488e-05
1.68899961488e-05
1.68899961488e-05
1.68899961488e-05
1.68899961488e-05
1.68899961488e-05
1.68899961492e-05
1.68899961744e-05
1.68899975596e-05
1.68900746568e-05
1.68915621175e-05
2.80524023871e-05
0.000105617019587
0.000185215945739
0.000143792410997
8.99544467735e-05
7.18379828381e-05
6.57438881387e-05
6.36692802334e-05
6.28325413977e-05
6.23637793736e-05
6.19944265463e-05
6.16520224938e-05
6.13235642142e-05
6.10055647304e-05
6.07096424682e-05
6.04093252417e-05
6.01161020811e-05
5.98305504707e-05
5.95514794633e-05
5.92774053175e-05
5.90087679559e-05
5.87443983568e-05
5.84835263529e-05
5.82268151653e-05
5.79850071822e-05
5.77342328376e-05
5.74862133033e-05
5.72403793149e-05
5.69985757255e-05
5.67600312083e-05
5.65247271307e-05
5.62927234684e-05
5.6078745896e-05
5.5856783317e-05
5.56403786373e-05
5.5431522775e-05
5.52302146524e-05
5.50374068665e-05
5.48535304401e-05
5.46795290921e-05
5.45173697363e-05
5.43668925373e-05
5.42415859621e-05
5.41170406232e-05
5.40065015064e-05
5.39107623074e-05
5.38299635848e-05
5.37644578114e-05
5.37144339562e-05
5.36799844383e-05
5.36542127148e-05
1.68899961488e-05
1.68899961488e-05
1.68899961488e-05
1.68899961488e-05
1.68899961488e-05
1.68899961488e-05
1.68899961488e-05
1.68899961488e-05
1.68899961488e-05
1.68899961488e-05
1.68899961488e-05
1.68899961488e-05
1.68899961488e-05
1.68899961488e-05
1.68899961502e-05
1.68899962291e-05
1.68900005241e-05
1.68902365019e-05
1.68935885559e-05
4.80877790186e-05
0.000142043508766
0.000221323937372
0.000125182445718
8.49110816853e-05
7.11788757098e-05
6.65691472953e-05
6.48988218094e-05
6.41604211378e-05
6.36708457118e-05
6.32553840351e-05
6.28636219119e-05
6.24969805019e-05
6.21309541721e-05
6.17750881688e-05
6.14299632973e-05
6.10935147174e-05
6.07662714466e-05
6.04469893906e-05
6.01468168495e-05
5.9840021084e-05
5.95391875592e-05
5.92439960111e-05
5.89533457498e-05
5.86683384272e-05
5.83876800123e-05
5.81230014972e-05
5.78503156337e-05
5.75815985084e-05
5.73168964938e-05
5.70578559762e-05
5.68041426834e-05
5.6555506233e-05
5.63129715164e-05
5.60907853389e-05
5.58638548784e-05
5.564549028e-05
5.5436316523e-05
5.52383566559e-05
5.50516163144e-05
5.48772374325e-05
5.47156754239e-05
5.45678766096e-05
5.4434397146e-05
5.43298677902e-05
5.42271873821e-05
5.41407290769e-05
5.40706146596e-05
5.40170321516e-05
5.39800497674e-05
5.39529979941e-05
1.68899961488e-05
1.68899961488e-05
1.68899961488e-05
1.68899961488e-05
1.68899961488e-05
1.68899961488e-05
1.68899961488e-05
1.68899961488e-05
1.68899961488e-05
1.68899961488e-05
1.68899961488e-05
1.68899961488e-05
1.68899961488e-05
1.68899961488e-05
1.68899961525e-05
1.6889996353e-05
1.68900070746e-05
1.68905738857e-05
1.68972242287e-05
7.55020709505e-05
0.000155847917724
0.000198369575801
0.000111567431833
8.14704736932e-05
7.11674582926e-05
6.76607461945e-05
6.62893178655e-05
6.55910837425e-05
6.50714479652e-05
6.46016416891e-05
6.41530449531e-05
6.37215990868e-05
6.33031086203e-05
6.28985172606e-05
6.25176427819e-05
6.21362973204e-05
6.17650379145e-05
6.14027577275e-05
6.10500929828e-05
6.07050229653e-05
6.03668921177e-05
6.00482231781e-05
5.97235615184e-05
5.94047767011e-05
5.90910023941e-05
5.87836806716e-05
5.84816760857e-05
5.81979136499e-05
5.79075546562e-05
5.76236796373e-05
5.73458150729e-05
5.70746404497e-05
5.6811772844e-05
5.65572840334e-05
5.63246504593e-05
5.60888615347e-05
5.58635275219e-05
5.56506960273e-05
5.54503532169e-05
5.52635253505e-05
5.50910442645e-05
5.49335836927e-05
5.47913702149e-05
5.46782376825e-05
5.45687004797e-05
5.44765674048e-05
5.44019145549e-05
5.43448607853e-05
5.43054232619e-05
5.42772199628e-05
1.68899961488e-05
1.68899961488e-05
1.68899961488e-05
1.68899961488e-05
1.68899961488e-05
1.68899961488e-05
1.68899961488e-05
1.68899961488e-05
1.68899961488e-05
1.68899961488e-05
1.68899961488e-05
1.68899961488e-05
1.68899961488e-05
1.6889996149e-05
1.68899961627e-05
1.68899969096e-05
1.68900378265e-05
1.68910679227e-05
2.18743092609e-05
9.17212084534e-05
0.000170950032563
0.000166700114152
0.000101480558406
7.92892775807e-05
7.16881670353e-05
6.89872010314e-05
6.7822915708e-05
6.71181033154e-05
6.65429958824e-05
6.60086270909e-05
6.54979455618e-05
6.50059075703e-05
6.45452671283e-05
6.40863950559e-05
6.36437866121e-05
6.32139014068e-05
6.27964202287e-05
6.24033214053e-05
6.20080992681e-05
6.16216272876e-05
6.12452758094e-05
6.0876462841e-05
6.05298452279e-05
6.01765745586e-05
5.98301890386e-05
5.94916959902e-05
5.91596893157e-05
5.88340812008e-05
5.85293507211e-05
5.82188137434e-05
5.79164008731e-05
5.76218207421e-05
5.73373454785e-05
5.70626179522e-05
5.68110810402e-05
5.65577056593e-05
5.63168066015e-05
5.6088363336e-05
5.58736775074e-05
5.56742125926e-05
5.54902687188e-05
5.53224536786e-05
5.51714151934e-05
5.50511788363e-05
5.49348292706e-05
5.48366991052e-05
5.47569964607e-05
5.46959099471e-05
5.46535171502e-05
5.46236826331e-05
1.68899961488e-05
1.68899961488e-05
1.68899961488e-05
1.68899961488e-05
1.68899961488e-05
1.68899961488e-05
1.68899961488e-05
1.68899961488e-05
1.68899961488e-05
1.68899961488e-05
1.68899961488e-05
1.68899961488e-05
1.68899961488e-05
1.68899961497e-05
1.68899961998e-05
1.68899988976e-05
1.68901453837e-05
1.68925320695e-05
3.65458933836e-05
0.000129700758548
0.000198563320831
0.000141409143736
9.42443107e-05
7.81568869527e-05
7.26088856591e-05
7.0488875357e-05
6.94393834269e-05
6.87164770937e-05
6.8079332654e-05
6.74776955702e-05
6.69152180087e-05
6.63615506774e-05
6.58280129928e-05
6.53131971492e-05
6.48289102346e-05
6.43468711688e-05
6.3880863504e-05
6.34282682608e-05
6.30019349788e-05
6.25743163218e-05
6.21577596224e-05
6.17501360025e-05
6.13534174253e-05
6.09788069098e-05
6.05984989857e-05
6.02278366494e-05
5.98650500596e-05
5.95105374136e-05
5.91790555581e-05
5.88416952499e-05
5.85144538244e-05
5.81965486825e-05
5.78888389114e-05
5.75927833943e-05
5.73225801114e-05
5.70510199379e-05
5.67926631307e-05
5.65488350765e-05
5.63206035747e-05
5.61084898552e-05
5.59129181249e-05
5.57345861675e-05
5.5587941309e-05
5.54458933344e-05
5.53227396989e-05
5.52187796982e-05
5.51342961057e-05
5.50694566473e-05
5.50242534703e-05
5.49930229718e-05
1.68899961488e-05
1.68899961488e-05
1.68899961488e-05
1.68899961488e-05
1.68899961488e-05
1.68899961488e-05
1.68899961488e-05
1.68899961488e-05
1.68899961488e-05
1.68899961488e-05
1.68899961488e-05
1.68899961488e-05
1.68899961488e-05
1.68899961519e-05
1.68899963215e-05
1.68900053181e-05
1.68904789594e-05
1.6896203237e-05
6.80762235225e-05
0.000151428870291
0.000213316580198
0.00012262491674
8.94128991723e-05
7.789942029e-05
7.3829123229e-05
7.21263786457e-05
7.11345383274e-05
7.03666531583e-05
6.96762517882e-05
6.90062431814e-05
6.83640605331e-05
6.77469364889e-05
6.7166354575e-05
6.65930860986e-05
6.60410155492e-05
6.55206411062e-05
6.50027982522e-05
6.45025109933e-05
6.4015627765e-05
6.35578558266e-05
6.30984062684e-05
6.26516143204e-05
6.22169003662e-05
6.18066669922e-05
6.13918219523e-05
6.09884254408e-05
6.05949599565e-05
6.02105791707e-05
5.98513286996e-05
5.94879764028e-05
5.91346147873e-05
5.87933584338e-05
5.84640328267e-05
5.81615577355e-05
5.78569065941e-05
5.75667368305e-05
5.72918508734e-05
5.70325441996e-05
5.67898715741e-05
5.65642531614e-05
5.63703829916e-05
5.61811785196e-05
5.60111911654e-05
5.58612651056e-05
5.57311837715e-05
5.56217119455e-05
5.55327297008e-05
5.54643126433e-05
5.54164843262e-05
5.5383747811e-05
1.68899961488e-05
1.68899961488e-05
1.68899961488e-05
1.68899961488e-05
1.68899961488e-05
1.68899961488e-05
1.68899961488e-05
1.68899961488e-05
1.68899961488e-05
1.68899961488e-05
1.68899961488e-05
1.68899961488e-05
1.6889996149e-05
1.68899961625e-05
1.68899968889e-05
1.68900360285e-05
1.68910569174e-05
2.13105830094e-05
9.01147010361e-05
0.000168335390774
0.000176887675623
0.000109669279144
8.65092510867e-05
7.84201576104e-05
7.53731793248e-05
7.38980207553e-05
7.29274451352e-05
7.20913030721e-05
7.1309168376e-05
7.0564448542e-05
6.98654621112e-05
6.91821155273e-05
6.85245624631e-05
6.79064481517e-05
6.72972022268e-05
6.67088285569e-05
6.61542844523e-05
6.56045983714e-05
6.50711100985e-05
6.45548788104e-05
6.40672003087e-05
6.35783253643e-05
6.3104141682e-05
6.26565719303e-05
6.22071058725e-05
6.17698669046e-05
6.13441839973e-05
6.09306718001e-05
6.05422674893e-05
6.01520144005e-05
5.97744354136e-05
5.94096592443e-05
5.90578212215e-05
5.87346210052e-05
5.84110319464e-05
5.81020988568e-05
5.78106251413e-05
5.75361951191e-05
5.72792933546e-05
5.7055884201e-05
5.68362776779e-05
5.66362499497e-05
5.64563181386e-05
5.62978843459e-05
5.61607309124e-05
5.60450067705e-05
5.59510504557e-05
5.58786948828e-05
5.58279178073e-05
5.57935324337e-05
1.68899961488e-05
1.68899961488e-05
1.68899961488e-05
1.68899961488e-05
1.68899961488e-05
1.68899961488e-05
1.68899961488e-05
1.68899961488e-05
1.68899961488e-05
1.68899961488e-05
1.68899961488e-05
1.68899961488e-05
1.68899961499e-05
1.68899962105e-05
1.68899994148e-05
1.68901698085e-05
1.68928514664e-05
3.87128763505e-05
0.000132112788871
0.000198063281544
0.000147022184
0.000100973649282
8.51293990559e-05
7.94637959408e-05
7.71052391066e-05
7.57681265741e-05
7.4759440497e-05
7.38466669055e-05
7.29987119604e-05
7.21758455645e-05
7.13892591001e-05
7.06495039928e-05
6.99251419828e-05
6.92447729462e-05
6.8575994705e-05
6.79333938049e-05
6.73266789998e-05
6.67269854809e-05
6.61467376876e-05
6.55844504225e-05
6.50541935842e-05
6.45253112473e-05
6.40108959561e-05
6.35275683495e-05
6.30410662406e-05
6.25700291091e-05
6.21122245572e-05
6.16827098157e-05
6.12501251848e-05
6.08333233451e-05
6.04304857634e-05
6.00419692527e-05
5.96825798734e-05
5.93238009643e-05
5.89812574069e-05
5.86556189984e-05
5.83470023907e-05
5.80728838209e-05
5.78007509344e-05
5.75495540113e-05
5.73186480262e-05
5.71085846524e-05
5.69203183592e-05
5.67539163479e-05
5.66102042333e-05
5.64885645357e-05
5.64057137161e-05
5.63291318782e-05
5.6275307725e-05
5.62393534204e-05
1.68899961488e-05
1.68899961488e-05
1.68899961488e-05
1.68899961488e-05
1.68899961488e-05
1.68899961488e-05
1.68899961488e-05
1.68899961488e-05
1.68899961488e-05
1.68899961488e-05
1.68899961488e-05
1.68899961489e-05
1.68899961534e-05
1.68899963958e-05
1.68900089486e-05
1.68906449654e-05
1.70113860687e-05
7.61979494742e-05
0.000155015818796
0.00021006298678
0.000126278319079
9.56335417326e-05
8.49434169365e-05
8.08969153317e-05
7.89513785825e-05
7.76869504365e-05
7.66177755399e-05
7.5637041582e-05
7.46934649706e-05
7.38068995135e-05
7.29468588045e-05
7.2136812751e-05
7.13478373412e-05
7.05893845229e-05
6.98755495489e-05
6.91748184848e-05
6.85145147139e-05
6.78628586669e-05
6.72350601729e-05
6.66427521906e-05
6.6053171194e-05
6.54834666175e-05
6.49310082542e-05
6.44092515766e-05
6.38889510338e-05
6.33841213225e-05
6.29100497908e-05
6.24350779316e-05
6.19752344389e-05
6.15299105342e-05
6.11011529468e-05
6.07040595301e-05
6.03071675265e-05
5.99278092498e-05
5.95650559819e-05
5.92386601585e-05
5.89138704445e-05
5.86081909893e-05
5.83231965532e-05
5.80595804698e-05
5.7817555606e-05
5.75976362468e-05
5.74168065426e-05
5.72423540732e-05
5.70912302626e-05
5.69639086544e-05
5.68600248339e-05
5.67796817035e-05
5.67229135621e-05
5.66852997426e-05
1.68899961488e-05
1.68899961488e-05
1.68899961488e-05
1.68899961488e-05
1.68899961488e-05
1.68899961488e-05
1.68899961488e-05
1.68899961488e-05
1.68899961488e-05
1.68899961488e-05
1.68899961488e-05
1.68899961493e-05
1.6889996177e-05
1.68899976369e-05
1.68900746579e-05
1.68915939097e-05
2.64721161781e-05
9.966286837e-05
0.000176243519495
0.000170034451748
0.000112868784236
9.28535862405e-05
8.56669060825e-05
8.26487503431e-05
8.09459793163e-05
7.96625247885e-05
7.85114313491e-05
7.74296433348e-05
7.64156866408e-05
7.54499471587e-05
7.45146625077e-05
7.36202750048e-05
7.27787233291e-05
7.19570817917e-05
7.11841629258e-05
7.04264235629e-05
6.97133641164e-05
6.90095750537e-05
6.83322870798e-05
6.76927955743e-05
6.70602471261e-05
6.64491279299e-05
6.58732047316e-05
6.52989588814e-05
6.47439661303e-05
6.420616036e-05
6.37003127294e-05
6.31958999405e-05
6.27082219512e-05
6.22542981807e-05
6.18002949488e-05
6.1364050871e-05
6.09444924651e-05
6.05443763698e-05
6.01804520544e-05
5.98187727372e-05
5.94777961636e-05
5.91580166886e-05
5.88598293028e-05
5.8600891317e-05
5.8347494539e-05
5.81176272035e-05
5.79118024425e-05
5.77297970632e-05
5.75722952278e-05
5.74390402794e-05
5.73304992503e-05
5.72464878603e-05
5.71867852126e-05
5.71473837993e-05
1.68899961488e-05
1.68899961488e-05
1.68899961488e-05
1.68899961488e-05
1.68899961488e-05
1.68899961488e-05
1.68899961488e-05
1.68899961488e-05
1.68899961488e-05
1.68899961488e-05
1.68899961488e-05
1.68899961518e-05
1.68899963118e-05
1.68900045806e-05
1.68904271142e-05
1.68956801656e-05
6.07302739633e-05
0.000147218670512
0.000222283541718
0.000141049024307
0.000104646501422
9.18749620362e-05
8.69476006751e-05
8.45722864376e-05
8.29826787464e-05
8.16397202102e-05
8.04119636705e-05
7.92369944225e-05
7.81368579442e-05
7.7076746979e-05
7.60802704234e-05
7.51143677881e-05
7.42074487761e-05
7.33231047218e-05
7.24912669576e-05
7.16771638243e-05
7.09108141973e-05
7.01582622368e-05
6.94317998541e-05
6.87484583433e-05
6.80727209652e-05
6.74360667043e-05
6.68041461658e-05
6.61922302157e-05
6.56017031881e-05
6.5048092252e-05
6.44959606634e-05
6.39628165249e-05
6.34644467707e-05
6.29677845308e-05
6.24902243677e-05
6.20314941349e-05
6.1609652572e-05
6.11885118277e-05
6.07893748848e-05
6.04114755609e-05
6.00551588832e-05
5.97392522691e-05
5.94273939132e-05
5.91392523372e-05
5.88752537181e-05
5.8635834202e-05
5.84211376832e-05
5.8231645144e-05
5.80850370197e-05
5.79458772536e-05
5.78322195066e-05
5.77438998431e-05
5.768085456e-05
5.7639623516e-05
1.68899961488e-05
1.68899961488e-05
1.68899961488e-05
1.68899961488e-05
1.68899961488e-05
1.68899961488e-05
1.68899961488e-05
1.68899961488e-05
1.68899961488e-05
1.68899961488e-05
1.68899961491e-05
1.68899961695e-05
1.68899972286e-05
1.6890052272e-05
1.68913048841e-05
2.29768533595e-05
9.2646276099e-05