/*--------------------------------*- C++ -*----------------------------------*\
| =========                 |                                                 |
| \\      /  F ield         | foam-extend: Open Source CFD                    |
|  \\    /   O peration     | Version:     4.1                                |
|   \\  /    A nd           | Web:         http://www.foam-extend.org         |
|    \\/     M anipulation  |                                                 |
\*---------------------------------------------------------------------------*/
FoamFile
{
    version     2.0;
    format      ascii;
    class       volScalarField;
    location    "0.0008";
    object      N;
}
// * * * * * * * * * * * * * * * * * * * * * * * * * * * * * * * * * * * * * //

dimensions      [0 0 0 0 0 0 0];

internalField   nonuniform List<scalar> 
8400
(
7.71492891886e-105
7.71492891891e-105
7.71492891895e-105
7.71492891899e-105
7.71492891903e-105
7.71492891907e-105
7.71492891911e-105
7.71492891915e-105
7.71492891918e-105
7.71492891922e-105
7.71492891926e-105
7.71492891929e-105
7.71492891933e-105
7.71492891936e-105
7.71492891939e-105
7.71492891943e-105
7.71492891954e-105
7.7149289243e-105
7.71492919359e-105
7.714944497e-105
7.71577866583e-105
7.76137312334e-105
8.30734281561e-105
9.33520927704e-09
0.239362320196
0.677452175871
0.442837825448
0.307676497885
0.247709393306
0.223772594411
0.215096564913
0.212155076424
0.211150787711
0.210626271297
0.210240537761
0.209904489755
0.209594557204
0.209299246668
0.209012281055
0.20872968074
0.208447511426
0.208163046238
0.207873512449
0.207575571366
0.207265691212
0.206998171448
0.206660294428
0.206307653571
0.205937523863
0.205549328497
0.205142915925
0.204718960345
0.204279047
0.203824311008
0.20335887739
0.202884026564
0.20240387679
0.201921765528
0.20144360322
0.200975189261
0.200524636369
0.200096835592
0.19969701859
0.199331050216
0.199004852946
0.198723396098
0.198491425002
0.198312565378
0.198188844282
0.197933774941
7.71492890619e-105
7.71492890621e-105
7.71492890623e-105
7.71492890624e-105
7.71492890626e-105
7.71492890627e-105
7.71492890629e-105
7.71492890631e-105
7.71492890632e-105
7.71492890634e-105
7.71492890635e-105
7.71492890637e-105
7.71492890638e-105
7.71492890639e-105
7.71492890641e-105
7.71492890643e-105
7.71492890687e-105
7.71492893166e-105
7.71493035756e-105
7.71500963956e-105
7.71947487667e-105
7.82084631376e-105
3.98861499954e-38
3.71365219264e-05
0.56662718299
0.574950458621
0.374975214469
0.2739699227
0.231899254832
0.215910552751
0.210512725346
0.208904934157
0.20827459207
0.207927527419
0.20762805887
0.207336967443
0.207046174597
0.206751389861
0.206452314955
0.206091202178
0.205778311513
0.205455064217
0.205121299368
0.204775714882
0.20441660807
0.204042989348
0.203654216115
0.203249849709
0.202830739802
0.202395355837
0.201944463533
0.201478088307
0.200998932173
0.20050915965
0.200014015007
0.199514459407
0.19901431456
0.198516709588
0.198028147728
0.197554222317
0.197102607186
0.196676459756
0.196281201181
0.195921423663
0.19560248604
0.195329086095
0.195104988917
0.194933011576
0.194814795706
0.194605401479
7.71492890009e-105
7.7149289001e-105
7.71492890011e-105
7.71492890012e-105
7.71492890013e-105
7.71492890014e-105
7.71492890014e-105
7.71492890015e-105
7.71492890016e-105
7.71492890017e-105
7.71492890018e-105
7.71492890019e-105
7.7149289002e-105
7.71492890021e-105
7.71492890022e-105
7.71492890027e-105
7.71492890273e-105
7.71492904387e-105
7.71493716871e-105
7.71538541685e-105
7.74047393517e-105
8.08141214777e-105
7.35825724065e-14
0.116091214362
0.724197905275
0.475856555666
0.320484733021
0.249719946701
0.221450980693
0.211384555861
0.208289607685
0.207388599202
0.207051910048
0.206818503424
0.206598916037
0.206375443543
0.206087184632
0.205843776912
0.205587302716
0.205318091321
0.205035224491
0.204738081902
0.20442508515
0.204095974175
0.203749897446
0.203386280971
0.203006468411
0.202608580876
0.202192827372
0.201759234179
0.201309079728
0.200844607808
0.200369190767
0.199885842353
0.199396251473
0.198903182935
0.198410849966
0.197924536821
0.197450541629
0.196993673964
0.196557914498
0.19614807605
0.195768860392
0.19542570242
0.195122965729
0.194864419012
0.194653964208
0.194492942035
0.194382470473
0.194203404083
7.71492889635e-105
7.71492889635e-105
7.71492889636e-105
7.71492889637e-105
7.71492889638e-105
7.71492889638e-105
7.71492889639e-105
7.7149288964e-105
7.7149288964e-105
7.71492889641e-105
7.71492889642e-105
7.71492889642e-105
7.71492889643e-105
7.71492889644e-105
7.71492889644e-105
7.71492889662e-105
7.71492890649e-105
7.71492948015e-105
7.71496215463e-105
7.71680126401e-105
7.78332619346e-105
1.09119665671e-38
1.69157133626e-06
0.386752470923
0.627341450914
0.405118686199
0.28680967656
0.236172487222
0.216661419035
0.210119527545
0.208187127692
0.207551770308
0.207254290022
0.207013419501
0.206779865666
0.206543976892
0.206245952576
0.205994615453
0.205731913582
0.205457077591
0.205168843686
0.204865969463
0.204547000043
0.204210976294
0.203857339382
0.203485563792
0.203096768999
0.202690374707
0.202266189431
0.201824734873
0.201366916589
0.200895911468
0.200414720842
0.199927747417
0.199435860326
0.198942488018
0.198451493476
0.197968836032
0.197499988539
0.197050472695
0.196622779029
0.19622182504
0.195851619846
0.195517830009
0.195224608537
0.194975071339
0.194771419243
0.194616142385
0.194509567902
0.194347227545
7.71492889381e-105
7.71492889382e-105
7.71492889383e-105
7.71492889383e-105
7.71492889384e-105
7.71492889384e-105
7.71492889385e-105
7.71492889385e-105
7.71492889386e-105
7.71492889386e-105
7.71492889387e-105
7.71492889387e-105
7.71492889388e-105
7.71492889388e-105
7.7149288939e-105
7.71492889457e-105
7.71492893344e-105
7.7149311873e-105
7.71505715768e-105
7.72222241568e-105
7.86007372709e-105
6.83807715285e-38
0.000500795935116
0.677769097219
0.545419055161
0.357991605897
0.266645879618
0.229208420882
0.215267347761
0.210738775284
0.20939286339
0.20882648752
0.208485704364
0.20818044123
0.207882834123
0.207585677519
0.207286528053
0.206984457291
0.206619695469
0.206301312185
0.205970804948
0.205627761686
0.205270750425
0.204898670524
0.204510350684
0.204105037834
0.203682854913
0.203244120527
0.202790872972
0.20232226335
0.201840127485
0.20134565806
0.200842758108
0.200334332387
0.199825477828
0.199317776034
0.198815789182
0.198324173107
0.197846883776
0.1974443179
0.197011455491
0.196607590409
0.196236766183
0.195904229214
0.195613590706
0.195366879174
0.195165506819
0.195010745831
0.194903840788
0.194749560054
7.71492889199e-105
7.714928892e-105
7.714928892e-105
7.71492889201e-105
7.71492889201e-105
7.71492889201e-105
7.71492889202e-105
7.71492889202e-105
7.71492889203e-105
7.71492889203e-105
7.71492889204e-105
7.71492889204e-105
7.71492889204e-105
7.71492889205e-105
7.71492889209e-105
7.71492889439e-105
7.71492902698e-105
7.71493667188e-105
7.71535945121e-105
7.7390788735e-105
8.06723484746e-105
1.94157675582e-16
0.106204773537
0.728720493827
0.481894411319
0.325870116955
0.254577814324
0.226015257275
0.21572303827
0.212466145615
0.211389530635
0.210865197769
0.21045138979
0.210064172971
0.209686458754
0.209310836131
0.208934696775
0.208555389251
0.208171135517
0.207780366676
0.207381344767
0.206973725814
0.20655408862
0.206123337899
0.205624412551
0.20516554524
0.204745926194
0.204256156876
0.203753941075
0.203238653462
0.20271416352
0.202181422286
0.201642952851
0.201100382051
0.200557806394
0.200020656648
0.199493903233
0.198981167809
0.198485943666
0.198012411621
0.197564677657
0.197148084037
0.196767488112
0.196426424281
0.19612864124
0.19587636036
0.195671177248
0.195514103335
0.195406041285
0.195257277778
7.71492889063e-105
7.71492889063e-105
7.71492889063e-105
7.71492889064e-105
7.71492889064e-105
7.71492889065e-105
7.71492889065e-105
7.71492889065e-105
7.71492889066e-105
7.71492889066e-105
7.71492889066e-105
7.71492889067e-105
7.71492889067e-105
7.71492889067e-105
7.71492889077e-105
7.71492889615e-105
7.71492920294e-105
7.71494666592e-105
7.71590060771e-105
7.76780004415e-105
8.38273964787e-105
7.69461536527e-08
0.277478765174
0.664387152302
0.433549390972
0.304131196396
0.247625303776
0.225443484885
0.217664827051
0.215166391389
0.21417651316
0.213579065534
0.213059833174
0.212565565859
0.212081596345
0.211603224271
0.211127367548
0.210652005619
0.210175392508
0.209698289827
0.20921555276
0.20872539523
0.208225410443
0.207715595297
0.207195978134
0.206666742174
0.206125741647
0.205573472458
0.20501032282
0.204437242951
0.203855264691
0.203268065923
0.202679967356
0.202093387569
0.201510241691
0.200933571549
0.200369581124
0.199824247675
0.199301213641
0.198803223247
0.198333013671
0.197893963244
0.197552044938
0.197194840386
0.196884247642
0.196621396184
0.19640732362
0.19624297781
0.196129566293
0.195980825109
7.71492888957e-105
7.71492888957e-105
7.71492888958e-105
7.71492888958e-105
7.71492888958e-105
7.71492888959e-105
7.71492888959e-105
7.71492888959e-105
7.7149288896e-105
7.7149288896e-105
7.7149288896e-105
7.71492888961e-105
7.71492888961e-105
7.71492888962e-105
7.71492888991e-105
7.71492890696e-105
7.71492989197e-105
7.71498518432e-105
7.71809734485e-105
7.80290847931e-105
2.50577138042e-38
1.01003340519e-05
0.480131020099
0.603033292062
0.396359718304
0.289409502446
0.244094212809
0.226617549739
0.220561316765
0.218545970246
0.217548620543
0.216847590052
0.216207132002
0.215589293667
0.214985134153
0.214390085861
0.213800040665
0.213214138286
0.212631965796
0.212050627006
0.211466984604
0.210878586867
0.210284466127
0.209686673463
0.209082425771
0.208469438662
0.207846933192
0.207215930724
0.206580608948
0.205938610787
0.205292535796
0.204643829559
0.204051284538
0.203406154952
0.202769956136
0.202147491707
0.201540636891
0.200953381268
0.200390978072
0.199857639989
0.19935932371
0.198897345273
0.198476220189
0.198100546418
0.197773371793
0.197496658203
0.197271767941
0.197099857516
0.196981920022
0.196834441099
7.71492888874e-105
7.71492888874e-105
7.71492888874e-105
7.71492888875e-105
7.71492888875e-105
7.71492888875e-105
7.71492888875e-105
7.71492888876e-105
7.71492888876e-105
7.71492888876e-105
7.71492888876e-105
7.71492888877e-105
7.71492888877e-105
7.71492888879e-105
7.71492888958e-105
7.71492893527e-105
7.71493158123e-105
7.71507933844e-105
7.7234665196e-105
7.87840486958e-105
7.95633009044e-38
0.00142067899597
0.690394475127
0.547913387167
0.366886079141
0.279130036148
0.242876591138
0.229031976224
0.224262620224
0.222481174025
0.221483999089
0.220598025596
0.219819735179
0.219065701416
0.2183274805
0.217601515751
0.216887687734
0.216183697483
0.215485498608
0.214791069721
0.214097260397
0.213400376248
0.212757859169
0.212058122436
0.211355006494
0.210645552075
0.209931366073
0.209218004456
0.208499852281
0.207779554954
0.207058287104
0.206337663111
0.20562258641
0.204919244229
0.204227269223
0.203548345575
0.202887931816
0.202253958051
0.20165098479
0.201079776316
0.200600382744
0.200105460662
0.199656360311
0.199257044927
0.198909893263
0.198616336616
0.198377691083
0.19819526305
0.198070133202
0.19792222276
7.71492888806e-105
7.71492888807e-105
7.71492888807e-105
7.71492888807e-105
7.71492888807e-105
7.71492888807e-105
7.71492888808e-105
7.71492888808e-105
7.71492888808e-105
7.71492888808e-105
7.71492888809e-105
7.71492888809e-105
7.71492888809e-105
7.71492888813e-105
7.71492889034e-105
7.71492901702e-105
7.71493627755e-105
7.71533581407e-105
7.73759388565e-105
8.05241976245e-105
1.37175340344e-16
0.0899688148536
0.737989244237
0.498911867357
0.344050104201
0.272381920667
0.243194070765
0.232298107939
0.228446338469
0.226848842936
0.225765064664
0.224801725725
0.223881951332
0.222987742349
0.222112521247
0.221252588112
0.220404800118
0.219570067891
0.218745754865
0.217926421452
0.21711124776
0.216302955912
0.215495795363
0.214689155636
0.213880829519
0.213069987774
0.212260486458
0.21145237699
0.2106420738
0.209831327401
0.209025930267
0.20828282207
0.207496401457
0.206723768748
0.205966796164
0.205228500796
0.204512583904
0.203825977882
0.203175764851
0.202561520257
0.20198574442
0.201453952415
0.200972892146
0.200548181582
0.200179512997
0.199866508152
0.199610821812
0.199416033367
0.199284414868
0.199138152004
7.71492888751e-105
7.71492888751e-105
7.71492888751e-105
7.71492888752e-105
7.71492888752e-105
7.71492888752e-105
7.71492888752e-105
7.71492888752e-105
7.71492888753e-105
7.71492888753e-105
7.71492888753e-105
7.71492888753e-105
7.71492888754e-105
7.71492888763e-105
7.71492889267e-105
7.71492917905e-105
7.71494541028e-105
7.71582886876e-105
7.76371566488e-105
8.33308307096e-105
1.19086252467e-08
0.236216698
0.684196883343
0.457629203094
0.326750805897
0.268634613991
0.245220944627
0.236489088669
0.233272419124
0.231685140227
0.230469849042
0.229351708722
0.228272674454
0.22721951156
0.226193947806
0.225186908816
0.22419672009
0.223226140197
0.222268295459
0.221321315267
0.220380436134
0.219448045436
0.218522704777
0.217597716676
0.216737158448
0.215817575313
0.214904499013
0.213996739518
0.213090345428
0.212189627268
0.211299349466
0.210419361023
0.209553202736
0.208702084082
0.207871115569
0.207066875039
0.206351401329
0.20560737151
0.204902382098
0.204241733901
0.203625607162
0.203058937667
0.202545926768
0.202090512049
0.201694565578
0.201360200758
0.201088815517
0.20088203778
0.200741055459
0.200590571027
7.71492888705e-105
7.71492888705e-105
7.71492888705e-105
7.71492888705e-105
7.71492888706e-105
7.71492888706e-105
7.71492888706e-105
7.71492888706e-105
7.71492888706e-105
7.71492888707e-105
7.71492888707e-105
7.71492888707e-105
7.71492888708e-105
7.71492888734e-105
7.71492890217e-105
7.7149297512e-105
7.71497713599e-105
7.71761134956e-105
7.79715371971e-105
1.88260794916e-38
4.79448665091e-06
0.424743350853
0.626520186274
0.422017234667
0.314035055697
0.267053598398
0.248428374892
0.241479361666
0.238623339672
0.236973320334
0.235586481013
0.234280422867
0.233023579536
0.231798411118
0.230607734453
0.229445096095
0.228305137935
0.227181888363
0.226136680095
0.225050539833
0.223978797716
0.222914544473
0.221862991533
0.220819657846
0.219780898782
0.218753092
0.217733425422
0.216722349072
0.215715158999
0.214779219241
0.213793242045
0.212825616111
0.211876759991
0.210950368613
0.210047427942
0.209172332649
0.208333257845
0.207531818129
0.206772155956
0.206119477079
0.205454730643
0.204845339002
0.204296294648
0.203809636946
0.203386871783
0.203030388651
0.202742247703
0.202523529399
0.202374771409
0.202223967279
7.71492888666e-105
7.71492888666e-105
7.71492888666e-105
7.71492888666e-105
7.71492888667e-105
7.71492888667e-105
7.71492888667e-105
7.71492888667e-105
7.71492888667e-105
7.71492888667e-105
7.71492888668e-105
7.71492888668e-105
7.71492888669e-105
7.71492888743e-105
7.71492892938e-105
7.71493131779e-105
7.71506264272e-105
7.72237182067e-105
7.86339009868e-105
6.57155723226e-38
0.000298750579154
0.64125310237
0.570832340267
0.392598407138
0.30472474131
0.267373317508
0.252641263383
0.246997122558
0.24441175559
0.242640184092
0.241065631008
0.239566917131
0.238116499453
0.236767571864
0.235396268585
0.234056152673
0.232750357563
0.23147248565
0.230215888215
0.228983616779
0.227769851119
0.226570448663
0.225388068315
0.224275276277
0.223117597411
0.221971900782
0.220835108293
0.219714447959
0.218607639946
0.217514547581
0.216433694981
0.215438078873
0.214401574334
0.213389782551
0.212412318566
0.211469286443
0.210564455672
0.209700594694
0.208882651646
0.20811905632
0.207409875279
0.206821180886
0.206233049441
0.205711826167
0.20526001648
0.204879708304
0.204572575599
0.20433934662
0.204180046643
0.204024426172
7.71492888633e-105
7.71492888633e-105
7.71492888633e-105
7.71492888633e-105
7.71492888633e-105
7.71492888633e-105
7.71492888634e-105
7.71492888634e-105
7.71492888634e-105
7.71492888634e-105
7.71492888634e-105
7.71492888635e-105
7.71492888639e-105
7.71492888871e-105
7.71492902078e-105
7.7149365006e-105
7.71534369186e-105
7.73771549732e-105
8.05550600871e-105
1.17508783884e-16
0.0808126220067
0.74512495128
0.519083941556
0.368961601883
0.298570156501
0.269228372162
0.257592603734
0.252996947686
0.250514693881
0.248601986524
0.24684046935
0.245198686992
0.243557000109
0.241959533562
0.240407346526
0.238891626986
0.237414804242
0.235971206498
0.234613963822
0.233222268999
0.231855890734
0.230513025941
0.229188234239
0.227887347607
0.226603244353
0.225392861385
0.224141283858
0.222906279875
0.221688118237
0.220493731319
0.219321138228
0.218169991831
0.217044305349
0.216013836471
0.21495731593
0.213940588903
0.212965383766
0.212040118718
0.211166428533
0.210349319226
0.209592042582
0.208898767416
0.208272268681
0.207784566362
0.207302468407
0.206898403022
0.206571259383
0.206322651944
0.206153045522
0.205994974491
7.71492888604e-105
7.71492888604e-105
7.71492888604e-105
7.71492888604e-105
7.71492888605e-105
7.71492888605e-105
7.71492888605e-105
7.71492888605e-105
7.71492888605e-105
7.71492888605e-105
7.71492888606e-105
7.71492888606e-105
7.71492888617e-105
7.71492889229e-105
7.71492923413e-105
7.71494824708e-105
7.71596470878e-105
7.76970106885e-105
8.40018492433e-105
5.06716110017e-08
0.246976202232
0.688616841709
0.474227700312
0.350956751285
0.295441404597
0.272556628106
0.263408165823
0.259472107243
0.257007371527
0.254913555487
0.252936443112
0.251036318754
0.249189594203
0.247399724574
0.245712876896
0.24401787076
0.242364468793
0.240747747309
0.239170069113
0.237623304554
0.236103724101
0.234671060131
0.233205858828
0.231764146827
0.230341784798
0.228946170788
0.227570265389
0.226278691339
0.224951089458
0.223651359748
0.222376779615
0.221129887244
0.219918601917
0.218742469023
0.217668353921
0.21657578855
0.215531021808
0.214542086649
0.213610015802
0.212739939415
0.21193625964
0.211202832451
0.210539175635
0.210013828452
0.209502294518
0.20907295171
0.208726537686
0.208464003889
0.208285076966
0.208125568849
7.71492888579e-105
7.71492888579e-105
7.71492888579e-105
7.71492888579e-105
7.7149288858e-105
7.7149288858e-105
7.7149288858e-105
7.7149288858e-105
7.7149288858e-105
7.7149288858e-105
7.71492888581e-105
7.71492888581e-105
7.71492888622e-105
7.71492890922e-105
7.71493020374e-105
7.71500101487e-105
7.7188801283e-105
7.81653810514e-105
3.01369923894e-38
1.37547951568e-05
0.470405202666
0.624739444801
0.436336506218
0.337934201456
0.294914944139
0.277197688837
0.269957550398
0.266363571474
0.263777808227
0.261454401177
0.259245031256
0.25711099606
0.255110613896
0.253110801309
0.251175823162
0.249291312525
0.247455225527
0.245724891974
0.243977948796
0.242264530636
0.240592159036
0.238947647731
0.237401302388
0.235818113616
0.234262279855
0.232738177854
0.23123934578
0.229764291317
0.228384469692
0.22697252771
0.225594420875
0.224248614488
0.222945887493
0.221684693638
0.220530825197
0.219363575892
0.218253081121
0.217197695508
0.216204739662
0.215281017471
0.214428178422
0.213649997415
0.212948480881
0.212393911702
0.211854356399
0.211400089341
0.211032591018
0.210752902491
0.210561456931
0.210397294834
7.71492888557e-105
7.71492888557e-105
7.71492888557e-105
7.71492888558e-105
7.71492888558e-105
7.71492888558e-105
7.71492888558e-105
7.71492888558e-105
7.71492888558e-105
7.71492888558e-105
7.71492888559e-105
7.71492888561e-105
7.71492888713e-105
7.71492897209e-105
7.71493372145e-105
7.71518949173e-105
7.72907706325e-105
7.95534612222e-105
2.6819878519e-23
0.0176748496454
0.721274124039
0.562988705243
0.405765234073
0.329260944427
0.29648087956
0.28286246359
0.276934586166
0.273544211674
0.270788178556
0.268227932927
0.265836835522
0.263474200183
0.261188946498
0.258976398213
0.256888529378
0.254801602557
0.252778681186
0.250806564787
0.248944961431
0.247070283156
0.245238970247
0.243440981269
0.241684667567
0.240024825694
0.238331312549
0.2366771909
0.235052782329
0.233460023249
0.231969972077
0.230446459174
0.228965895359
0.227523512781
0.22612369344
0.224773143728
0.223541280378
0.222297531972
0.221112805825
0.219992771783
0.218943406683
0.217966427399
0.217064797109
0.216241031877
0.215567613142
0.214912284127
0.214345635692
0.213867516527
0.213480700223
0.213186023923
0.212983431061
0.212816233931
7.71492888538e-105
7.71492888538e-105
7.71492888538e-105
7.71492888538e-105
7.71492888538e-105
7.71492888539e-105
7.71492888539e-105
7.71492888539e-105
7.71492888539e-105
7.71492888539e-105
7.71492888539e-105
7.71492888549e-105
7.71492889077e-105
7.71492918259e-105
7.71494526093e-105
7.71579818058e-105
7.7607016037e-105
8.3033901041e-105
1.4394904033e-09
0.184163218279
0.716383151854
0.508308597469
0.382691173513
0.324449933771
0.2997343932
0.289336230582
0.284287401073
0.280912253048
0.278013209242
0.275216482618
0.272529159101
0.269934144081
0.267486506228
0.265055892377
0.262705808415
0.260484332676
0.258262677449
0.256108084425
0.254003039223
0.252019235871
0.250018599859
0.248067945282
0.24616235562
0.244360869862
0.242529809801
0.24074447986
0.238997625232
0.237284367753
0.235681621171
0.234052979592
0.23246563932
0.230928208044
0.229439204228
0.228071271165
0.226687697517
0.22536757696
0.224114514623
0.222930705991
0.221820075116
0.220785334165
0.219899347491
0.219030852434
0.218251553475
0.217563729698
0.216968292314
0.216468182857
0.216063521429
0.215754837386
0.215542257263
0.215372259968
7.71492888521e-105
7.71492888521e-105
7.71492888521e-105
7.71492888521e-105
7.71492888521e-105
7.71492888521e-105
7.71492888521e-105
7.71492888522e-105
7.71492888522e-105
7.71492888522e-105
7.71492888523e-105
7.71492888564e-105
7.71492890864e-105
7.71493018404e-105
7.7149990517e-105
7.7187096675e-105
7.81549474599e-105
2.67545470395e-38
9.10240218058e-06
0.430462746254
0.645396493191
0.463398036874
0.366466282442
0.323258849389
0.304759000587
0.296538898862
0.292051949087
0.288547753265
0.285339368068
0.282282020153
0.2794050182
0.276575800997
0.273839929767
0.271258150403
0.268698613531
0.266215185864
0.263867521858
0.261528344822
0.259247408839
0.257031074659
0.254933376209
0.252817482551
0.250757524967
0.248809335482
0.246842679586
0.244923652595
0.243049057654
0.241221035776
0.239501298913
0.237765056782
0.236080614746
0.234448380783
0.232868104034
0.231416456754
0.229955993092
0.228559594241
0.227238081961
0.225991855095
0.224822710993
0.223808941225
0.222806631067
0.221893952541
0.221073232806
0.220350866686
0.21972666972
0.219201432841
0.218776497842
0.218452022202
0.21822802068
0.218054613536
7.71492888505e-105
7.71492888505e-105
7.71492888506e-105
7.71492888506e-105
7.71492888506e-105
7.71492888506e-105
7.71492888506e-105
7.71492888506e-105
7.71492888506e-105
7.71492888506e-105
7.7149288851e-105
7.71492888701e-105
7.71492899185e-105
7.71493473732e-105
7.71523852409e-105
7.73139264317e-105
7.98562645708e-105
3.79696266572e-23
0.0247197423733
0.718497835208
0.575659361163
0.428571084193
0.35638120022
0.324746866585
0.310944230719
0.304260773761
0.299951682345
0.296255763979
0.292849672829
0.289529527483
0.286337159388
0.283320796776
0.280346881148
0.277543054589
0.274770636038
0.272092398947
0.269554140156
0.267031546894
0.26457880811
0.262190272367
0.259931376202
0.257666132817
0.255452044642
0.253367223991
0.251257442427
0.249206914987
0.247204962064
0.245324156151
0.243419120761
0.241578737055
0.239794054112
0.238066265698
0.236467277921
0.23486338043
0.233328009305
0.231864201952
0.230472898666
0.229239496953
0.228009279784
0.226872156343
0.225825701163
0.224873261957
0.224018269723
0.223264474804
0.222614461144
0.22206510549
0.221697819028
0.221355060762
0.221119186372
0.220942997703
7.71492888491e-105
7.71492888492e-105
7.71492888492e-105
7.71492888492e-105
7.71492888492e-105
7.71492888492e-105
7.71492888492e-105
7.71492888492e-105
7.71492888492e-105
7.71492888493e-105
7.71492888507e-105
7.71492889301e-105
7.71492932107e-105
7.71495230892e-105
7.71614236819e-105
7.77643976049e-105
7.05871967669e-40
6.3258963903e-08
0.232962989819
0.708876047287
0.51671859778
0.403744758571
0.351408843725
0.328414862832
0.317920544175
0.312235407188
0.307917275427
0.304051834962
0.300326419432
0.296810117844
0.293372442169
0.290117189271
0.286924869126
0.283836422716
0.280916965205
0.278030397758
0.275298915641
0.272588303326
0.26996310176
0.267476468299
0.26498707379
0.262570629015
0.260215863039
0.257985915785
0.255748821089
0.253568537815
0.251515825462
0.249448483419
0.247440379387
0.245486683575
0.243598932102
0.241849121049
0.240091058207
0.238406379056
0.236789522731
0.235334658646
0.233880501614
0.232509783453
0.231229816141
0.230043931801
0.228953166656
0.22796015579
0.227149037698
0.226362616766
0.225684016222
0.225112953298
0.224649581547
0.224294668803
0.224048404519
0.22386912492
7.71492888479e-105
7.71492888479e-105
7.71492888479e-105
7.71492888479e-105
7.71492888479e-105
7.71492888479e-105
7.7149288848e-105
7.7149288848e-105
7.7149288848e-105
7.71492888482e-105
7.71492888571e-105
7.71492893424e-105
7.71493156584e-105
7.71506996541e-105
7.7223719218e-105
7.86640415221e-105
5.63710134268e-38
8.42639107658e-05
0.538742115198
0.629196725443
0.470450894699
0.387799409462
0.350640806981
0.333937944751
0.32571824031
0.3204380472
0.315967771417
0.311792918762
0.307862319316
0.304090640228
0.300409612475
0.296863313988
0.293508397614
0.290206501919
0.287084823346
0.284001241658
0.281086777743
0.278190518807
0.275387459199
0.27272979883
0.270084705571
0.267516617442
0.265087915925
0.262652460243
0.260286752685
0.257983393701
0.255811345915
0.253632910392
0.251517709732
0.249544707211
0.247561106991
0.245649150486
0.243802972697
0.24203538806
0.240427880267
0.238822119518
0.237305581843
0.235880072486
0.234546904606
0.233391122307
0.232255351301
0.231226251893
0.230304192852
0.22949001703
0.228786023691
0.228192605883
0.227711363219
0.227342614231
0.227085770882
0.226903725794
7.71492888467e-105
7.71492888468e-105
7.71492888468e-105
7.71492888468e-105
7.71492888468e-105
7.71492888468e-105
7.71492888468e-105
7.71492888468e-105
7.71492888469e-105
7.71492888478e-105
7.71492889005e-105
7.71492917333e-105
7.71494434129e-105
7.71572826715e-105
7.75578644121e-105
8.25380046601e-105
2.43211117077e-11
0.130645560424
0.744349558276
0.557709014789
0.436992680882
0.379013200229
0.352851411264
0.340653018744
0.333817855542
0.328626670265
0.323990322898
0.319538367311
0.315341845719
0.311262170691
0.307400844947
0.303625164211
0.300057644853
0.296549871012
0.293232119102
0.289958772979
0.286862140481
0.283800171784
0.280824794163
0.278014831226
0.275215482381
0.27256812011
0.26992329601
0.267348676924
0.264851757143
0.262504917784
0.260149705904
0.257864031348
0.255723393297
0.253577126675
0.25150575549
0.249508000811
0.24766796166
0.245820549035
0.244064872827
0.24239801573
0.240821712602
0.239426528603
0.238041337383
0.23675911297
0.235583324504
0.234517486207
0.233562233366
0.232717225864
0.232071021315
0.231453954509
0.230953631368
0.230569038007
0.230300258574
0.230114954725
7.71492888457e-105
7.71492888457e-105
7.71492888457e-105
7.71492888457e-105
7.71492888458e-105
7.71492888458e-105
7.71492888458e-105
7.71492888458e-105
7.71492888459e-105
7.71492888526e-105
7.71492892126e-105
7.71493084849e-105
7.7150312628e-105
7.72024963038e-105
7.83900316142e-105
3.63735735774e-38
1.71777673232e-05
0.439084615043
0.662808121338
0.502346569354
0.415974048987
0.376034975941
0.357645002174
0.348265655725
0.342025899977
0.336796573558
0.331917872577
0.327203908447
0.322748958147
0.318412545628
0.314313069467
0.310310465708
0.306532125167
0.302895371231
0.299323480897
0.295867051951
0.292603383452
0.289367633806
0.286311451174
0.283277376105
0.280334067895
0.277547475411
0.27477006089
0.27215158926
0.269530589955
0.266987459981
0.26451294465
0.26219998538
0.259882430083
0.257646176773
0.255570760257
0.25349153928
0.251496217994
0.249586347617
0.24785367762
0.24612499192
0.244494168027
0.2429628686
0.241534962683
0.24021176598
0.23909006555
0.237987631462
0.237001195187
0.236130509335
0.235377062269
0.234742172366
0.234225817824
0.233828273878
0.233548554431
0.233358579218
7.71492888448e-105
7.71492888448e-105
7.71492888448e-105
7.71492888448e-105
7.71492888448e-105
7.71492888448e-105
7.71492888448e-105
7.71492888448e-105
7.71492888458e-105
7.71492888937e-105
7.71492914364e-105
7.71494258457e-105
7.71562927533e-105
7.75029508918e-105
8.19792336773e-105
4.245759591e-13
0.0959117125359
0.750438677323
0.583425221682
0.463284298164
0.404359883339
0.377251375801
0.364021003205
0.356256338048
0.350228466895
0.344807015733
0.339609941203
0.334703821732
0.330005582113
0.325444687241
0.321125659563
0.316976131195
0.312920898038
0.309088705448
0.305320460199
0.301772008033
0.298264568782
0.294954175892
0.291671212068
0.288495033786
0.285491229326
0.282499275383
0.279676576052
0.276860181195
0.274126930408
0.271558978067
0.268980254066
0.26649024167
0.264081481109
0.261841233493
0.259596902033
0.257437936571
0.255455861945
0.253480588991
0.251601766835
0.249821884134
0.248139869973
0.246654460658
0.245185405086
0.243828080843
0.242581765044
0.241451050684
0.240436226527
0.239632829763
0.238856776701
0.238203256505
0.237673035105
0.237263440695
0.236972793687
0.236779375429
7.71492888439e-105
7.71492888439e-105
7.71492888439e-105
7.71492888439e-105
7.71492888439e-105
7.71492888439e-105
7.71492888439e-105
7.71492888441e-105
7.71492888518e-105
7.71492892598e-105
7.71493107308e-105
7.71504112057e-105
7.72065774864e-105
7.84555053491e-105
3.76881985134e-38
1.69932297981e-05
0.423853687612
0.675093201066
0.522391042164
0.43918753752
0.400074505585
0.381371434661
0.371298813909
0.364281310411
0.358230541213
0.35257348787
0.347194844996
0.341987628217
0.337067981003
0.332352572037
0.327761113047
0.323422990343
0.319185862746
0.315170299901
0.311310129059
0.30750677384
0.303919945151
0.300377918964
0.29695207415
0.293718235902
0.290507748577
0.287479991432
0.284461431659
0.281534253477
0.278778818963
0.276026995801
0.273361539048
0.270869793136
0.268375389192
0.265968773789
0.263746698628
0.261518635805
0.259385102443
0.257347194038
0.255503004809
0.253664975052
0.251938933881
0.250319317849
0.248808359776
0.247512018958
0.246232373376
0.24507399894
0.244036275026
0.243120205742
0.242326913413
0.241657088444