/*--------------------------------*- C++ -*----------------------------------*\
| =========                 |                                                 |
| \\      /  F ield         | foam-extend: Open Source CFD                    |
|  \\    /   O peration     | Version:     4.1                                |
|   \\  /    A nd           | Web:         http://www.foam-extend.org         |
|    \\/     M anipulation  |                                                 |
\*---------------------------------------------------------------------------*/
FoamFile
{
    version     2.0;
    format      ascii;
    class       volScalarField;
    location    "0.0008";
    object      N2;
}
// * * * * * * * * * * * * * * * * * * * * * * * * * * * * * * * * * * * * * //

dimensions      [0 0 0 0 0 0 0];

internalField   nonuniform List<scalar> 
8400
(
0.767082
0.767082
0.767082
0.767082
0.767082
0.767082
0.767082
0.767082
0.767082
0.767082
0.767082
0.767082
0.767082
0.767082
0.767082
0.767082
0.767082
0.767082
0.767082
0.767082
0.767082
0.767082
0.767082
0.762927851871
0.526542610287
0.000284859517716
1.99434575163e-05
5.58750894546e-06
3.00281374354e-06
2.30915479808e-06
2.09288562417e-06
2.02009291881e-06
1.99338110717e-06
1.97785001732e-06
1.96569544307e-06
1.95491603031e-06
1.94506079055e-06
1.93571367993e-06
1.9266667145e-06
1.91779540378e-06
1.90897647113e-06
1.90018294716e-06
1.89132661428e-06
1.88224644411e-06
1.87284472264e-06
1.86470281568e-06
1.85457752168e-06
1.84412522409e-06
1.83317937124e-06
1.8217237158e-06
1.80982269333e-06
1.79753846579e-06
1.78480585094e-06
1.77166328663e-06
1.75843841628e-06
1.74496808643e-06
1.73136400668e-06
1.71791468508e-06
1.70462022114e-06
1.69161357014e-06
1.67927165252e-06
1.66760838465e-06
1.65672243115e-06
1.64680643634e-06
1.6380945604e-06
1.63059392561e-06
1.62442825345e-06
1.61969320345e-06
1.61644734723e-06
1.61112691182e-06
0.767082
0.767082
0.767082
0.767082
0.767082
0.767082
0.767082
0.767082
0.767082
0.767082
0.767082
0.767082
0.767082
0.767082
0.767082
0.767082
0.767082
0.767082
0.767082
0.767082
0.767082
0.767082
0.767082
0.754477505886
0.199518430345
7.18589900209e-05
1.06158283415e-05
3.93290926954e-06
2.50021944124e-06
2.09060203972e-06
1.9653027294e-06
1.92844269969e-06
1.91290950637e-06
1.90391300863e-06
1.89586354328e-06
1.88795068625e-06
1.88011008168e-06
1.87210328041e-06
1.86391558649e-06
1.85386453088e-06
1.8453262788e-06
1.83647022342e-06
1.82726533028e-06
1.81767373974e-06
1.80777989762e-06
1.79746555677e-06
1.78667748876e-06
1.77543537862e-06
1.76391203303e-06
1.75189710538e-06
1.7394127772e-06
1.72666297276e-06
1.71355093287e-06
1.70012011629e-06
1.68672104511e-06
1.67320006382e-06
1.65966042391e-06
1.64639801422e-06
1.63336852176e-06
1.62074407355e-06
1.60888219637e-06
1.59768812903e-06
1.58730674304e-06
1.57796516792e-06
1.5697361756e-06
1.56268910822e-06
1.55692176546e-06
1.55250789371e-06
1.5494936423e-06
1.54521014218e-06
0.767082
0.767082
0.767082
0.767082
0.767082
0.767082
0.767082
0.767082
0.767082
0.767082
0.767082
0.767082
0.767082
0.767082
0.767082
0.767082
0.767082
0.767082
0.767082
0.767082
0.767082
0.767082
0.766903352938
0.649454509611
0.000881246321274
2.69259713819e-05
6.28331233075e-06
3.02588300626e-06
2.21288950677e-06
1.97459658193e-06
1.90567698711e-06
1.88560922784e-06
1.87797738766e-06
1.87242611745e-06
1.8670074488e-06
1.86134964214e-06
1.85371164628e-06
1.84743502302e-06
1.84073943535e-06
1.83361089994e-06
1.8260238863e-06
1.8179709579e-06
1.80954122395e-06
1.80059407917e-06
1.79110823163e-06
1.7810745149e-06
1.77071376411e-06
1.75979906771e-06
1.74833976567e-06
1.73645309548e-06
1.72416460105e-06
1.71144592096e-06
1.69848765132e-06
1.68540584427e-06
1.67213117639e-06
1.6588566713e-06
1.64570283942e-06
1.63269928939e-06
1.62012785124e-06
1.60809444502e-06
1.59661434667e-06
1.58586739869e-06
1.57604023155e-06
1.56714998311e-06
1.55931025826e-06
1.55261935856e-06
1.5472543602e-06
1.54317208281e-06
1.54038704335e-06
1.53669493214e-06
0.767082
0.767082
0.767082
0.767082
0.767082
0.767082
0.767082
0.767082
0.767082
0.767082
0.767082
0.767082
0.767082
0.767082
0.767082
0.767082
0.767082
0.767082
0.767082
0.767082
0.767082
0.767082
0.756842310916
0.379352350383
0.000133241323505
1.40175406528e-05
4.48126058066e-06
2.61131198702e-06
2.09926757897e-06
1.9488862882e-06
1.9056542175e-06
1.89096784863e-06
1.88385049995e-06
1.87795433565e-06
1.87208679268e-06
1.86603653289e-06
1.85807874624e-06
1.85144679061e-06
1.84452411408e-06
1.83718115723e-06
1.82938413426e-06
1.82109988583e-06
1.81238148178e-06
1.8031790362e-06
1.7934200124e-06
1.78309239807e-06
1.77236133647e-06
1.761152431e-06
1.74940388049e-06
1.73719432715e-06
1.72465043223e-06
1.71171128511e-06
1.69850996033e-06
1.6852942726e-06
1.67192867709e-06
1.65857497752e-06
1.64543805224e-06
1.63251398753e-06
1.62001020657e-06
1.60815362733e-06
1.59687498273e-06
1.58630548479e-06
1.57669569795e-06
1.56804429099e-06
1.56044431306e-06
1.55397845644e-06
1.54870713308e-06
1.54475193899e-06
1.54205976195e-06
1.53869346293e-06
0.767082
0.767082
0.767082
0.767082
0.767082
0.767082
0.767082
0.767082
0.767082
0.767082
0.767082
0.767082
0.767082
0.767082
0.767082
0.767082
0.767082
0.767082
0.767082
0.767082
0.767082
0.767082
0.758098574789
0.0879815022881
5.2787608523e-05
9.05004231647e-06
3.64479116305e-06
2.43007171005e-06
2.07898112851e-06
1.97403692853e-06
1.94284360987e-06
1.928632049e-06
1.91981832787e-06
1.91175801732e-06
1.90377743118e-06
1.89571083282e-06
1.8875692597e-06
1.8793391271e-06
1.86919774265e-06
1.86034326673e-06
1.8511362449e-06
1.8416221622e-06
1.8316456276e-06
1.82117778046e-06
1.81027487779e-06
1.7989315557e-06
1.7870629345e-06
1.77470261754e-06
1.76209344712e-06
1.74902378403e-06
1.73555306654e-06
1.72193761294e-06
1.70806626157e-06
1.69406045973e-06
1.68021897555e-06
1.66640250957e-06
1.65280032685e-06
1.6396279425e-06
1.62684159894e-06
1.61606896601e-06
1.6046665489e-06
1.59402932503e-06
1.584265501e-06
1.57557369248e-06
1.56803907439e-06
1.56164323165e-06
1.55643011531e-06
1.5524361395e-06
1.54969316403e-06
1.54640261448e-06
0.767082
0.767082
0.767082
0.767082
0.767082
0.767082
0.767082
0.767082
0.767082
0.767082
0.767082
0.767082
0.767082
0.767082
0.767082
0.767082
0.767082
0.767082
0.767082
0.767082
0.767082
0.766956904669
0.659292772181
0.00104311628598
2.85877774906e-05
6.67040398249e-06
3.22609235311e-06
2.36456341033e-06
2.10791097679e-06
2.03029856598e-06
2.00355876049e-06
1.98967481085e-06
1.97814288098e-06
1.96719188087e-06
1.95654623998e-06
1.94586994775e-06
1.93509425487e-06
1.9242818065e-06
1.91330804744e-06
1.90207106252e-06
1.89055536971e-06
1.87889843514e-06
1.86683652643e-06
1.85438522267e-06
1.84009195229e-06
1.82695938094e-06
1.8149287091e-06
1.80100031501e-06
1.78673610951e-06
1.7720772069e-06
1.75735570057e-06
1.74241540979e-06
1.72733361966e-06
1.71234366343e-06
1.69734899445e-06
1.68260894322e-06
1.66827215362e-06
1.65431024274e-06
1.64096774769e-06
1.62828454594e-06
1.61630195519e-06
1.60525024399e-06
1.59524044169e-06
1.5862692844e-06
1.57843259856e-06
1.5718012739e-06
1.56649291287e-06
1.56243741162e-06
1.55965830029e-06
1.55648197733e-06
0.767082
0.767082
0.767082
0.767082
0.767082
0.767082
0.767082
0.767082
0.767082
0.767082
0.767082
0.767082
0.767082
0.767082
0.767082
0.767082
0.767082
0.767082
0.767082
0.767082
0.767082
0.760948495912
0.488490876112
0.000228248058483
1.83471553509e-05
5.41488387515e-06
3.0224892198e-06
2.37684526838e-06
2.17990311767e-06
2.11714131985e-06
2.09022329122e-06
2.0729902727e-06
2.0575079504e-06
2.04282480269e-06
2.02838839103e-06
2.01403571397e-06
1.99992456774e-06
1.9857524807e-06
1.97148732242e-06
1.95735858354e-06
1.94300125925e-06
1.92839903816e-06
1.91366746532e-06
1.89859563387e-06
1.8832680389e-06
1.86778842268e-06
1.85193171603e-06
1.83588896442e-06
1.81961171669e-06
1.80304554556e-06
1.78645531436e-06
1.76970262966e-06
1.75306867002e-06
1.73658879397e-06
1.72022663085e-06
1.70428845162e-06
1.68869598253e-06
1.67373629419e-06
1.65950748784e-06
1.64596807882e-06
1.63332628252e-06
1.62161329732e-06
1.61247211831e-06
1.60294528282e-06
1.59476935554e-06
1.58785760596e-06
1.58223456227e-06
1.57792803646e-06
1.5749678962e-06
1.5717138892e-06
0.767082
0.767082
0.767082
0.767082
0.767082
0.767082
0.767082
0.767082
0.767082
0.767082
0.767082
0.767082
0.767082
0.767082
0.767082
0.767082
0.767082
0.767082
0.767082
0.767082
0.767082
0.754764393565
0.286030632578
9.9196559054e-05
1.3100845884e-05
4.71092762426e-06
2.94613500918e-06
2.44167640663e-06
2.28255658319e-06
2.2281545893e-06
2.19859964427e-06
2.17678068024e-06
2.156592827e-06
2.1371029577e-06
2.11814832189e-06
2.099423398e-06
2.0810893385e-06
2.06281974487e-06
2.04479877314e-06
2.02685981914e-06
2.00884546612e-06
1.99088315334e-06
1.97270414674e-06
1.95457190561e-06
1.93628605377e-06
1.91780478972e-06
1.89922235831e-06
1.88036845417e-06
1.86166298404e-06
1.84275597513e-06
1.82394552021e-06
1.80515032579e-06
1.78806279631e-06
1.76966254108e-06
1.75153617015e-06
1.73406390894e-06
1.71703622039e-06
1.7007421097e-06
1.68521874013e-06
1.67051803795e-06
1.65699910881e-06
1.64447741612e-06
1.63306989269e-06
1.62303535612e-06
1.61431469476e-06
1.60693856924e-06
1.60094696718e-06
1.59637162591e-06
1.59323767939e-06
1.58999738894e-06
0.767082
0.767082
0.767082
0.767082
0.767082
0.767082
0.767082
0.767082
0.767082
0.767082
0.767082
0.767082
0.767082
0.767082
0.767082
0.767082
0.767082
0.767082
0.767082
0.767082
0.767082
0.759277443116
0.0752120432811
5.46470343706e-05
1.00261247214e-05
4.28831717801e-06
2.95112292527e-06
2.54696076781e-06
2.41475214537e-06
2.36215429603e-06
2.33000103902e-06
2.30052710493e-06
2.27451685729e-06
2.24946881063e-06
2.22506158295e-06
2.20119612209e-06
2.17786121854e-06
2.15498404088e-06
2.13240819328e-06
2.11011090021e-06
2.08792302087e-06
2.06585214515e-06
2.04552822627e-06
2.02366605353e-06
2.00169545934e-06
1.97983338479e-06
1.9578167725e-06
1.93612363794e-06
1.91428780122e-06
1.89272789867e-06
1.8711516486e-06
1.84990755395e-06
1.82884772403e-06
1.8084235237e-06
1.78838002956e-06
1.7689685211e-06
1.75017343353e-06
1.73228824879e-06
1.71540332698e-06
1.69944257996e-06
1.68623484813e-06
1.67264842348e-06
1.66031990701e-06
1.64951935265e-06
1.64012864203e-06
1.63218819168e-06
1.62573785785e-06
1.62081063201e-06
1.61747754338e-06
1.61416114673e-06
0.767082
0.767082
0.767082
0.767082
0.767082
0.767082
0.767082
0.767082
0.767082
0.767082
0.767082
0.767082
0.767082
0.767082
0.767082
0.767082
0.767082
0.767082
0.767082
0.767082
0.766992011451
0.675430584896
0.00160172199481
3.39851355716e-05
8.15322694831e-06
4.05554618543e-06
3.00930897406e-06
2.68305632445e-06
2.56868410557e-06
2.51711330625e-06
2.47935179664e-06
2.44527753962e-06
2.41278660992e-06
2.3813109732e-06
2.35093338351e-06
2.32118102386e-06
2.2921266652e-06
2.26374572641e-06
2.23588405227e-06
2.20850698775e-06
2.18133245731e-06
2.15478651364e-06
2.12833615854e-06
2.10224037151e-06
2.07622426236e-06
2.05039185985e-06
2.02480202655e-06
1.99944809593e-06
1.97431833857e-06
1.94932290789e-06
1.92484012403e-06
1.90228202108e-06
1.87875809723e-06
1.85568715697e-06
1.83345325323e-06
1.8118144826e-06
1.79115044969e-06
1.77133902255e-06
1.75286474527e-06
1.73544261587e-06
1.71929279853e-06
1.70449174838e-06
1.69109913078e-06
1.67939606438e-06
1.66928207342e-06
1.66070854471e-06
1.6537189648e-06
1.64839161569e-06
1.64481168404e-06
1.64145054915e-06
0.767082
0.767082
0.767082
0.767082
0.767082
0.767082
0.767082
0.767082
0.767082
0.767082
0.767082
0.767082
0.767082
0.767082
0.767082
0.767082
0.767082
0.767082
0.767082
0.767082
0.762794275553
0.52967879553
0.000325808803872
2.32994256953e-05
6.9894909747e-06
3.96776951183e-06
3.1326529754e-06
2.85786251127e-06
2.75375655858e-06
2.69714446587e-06
2.6516318819e-06
2.60950884637e-06
2.56909132411e-06
2.52994950712e-06
2.49238061537e-06
2.45578622125e-06
2.42006517214e-06
2.38552635599e-06
2.35173399593e-06
2.31854456766e-06
2.28606037312e-06
2.25408940627e-06
2.22265019394e-06
2.19164367216e-06
2.16292257735e-06
2.13267240905e-06
2.10288806632e-06
2.07350400224e-06
2.04459809574e-06
2.01605765109e-06
1.98819534613e-06
1.96093477394e-06
1.93430399525e-06
1.90850196966e-06
1.88342473263e-06
1.85952047032e-06
1.83829356791e-06
1.81655634318e-06
1.79600193315e-06
1.77701977945e-06
1.75933844476e-06
1.74329182692e-06
1.72882342046e-06
1.71597750308e-06
1.70494631045e-06
1.69565718686e-06
1.68811864635e-06
1.6823703313e-06
1.67843936953e-06
1.67483102043e-06
0.767082
0.767082
0.767082
0.767082
0.767082
0.767082
0.767082
0.767082
0.767082
0.767082
0.767082
0.767082
0.767082
0.767082
0.767082
0.767082
0.767082
0.767082
0.767082
0.767082
0.755492752171
0.341386813066
0.000133947015966
1.69597720703e-05
6.27173427197e-06
3.97804818928e-06
3.30523414092e-06
3.07193681611e-06
2.96927925488e-06
2.90473708375e-06
2.84889483726e-06
2.7964475081e-06
2.74648214202e-06
2.69847520575e-06
2.65235110199e-06
2.60781086265e-06
2.56460384349e-06
2.52255674379e-06
2.48394776682e-06
2.44423787763e-06
2.40542386769e-06
2.36745620441e-06
2.33034724403e-06
2.29387854371e-06
2.25802445975e-06
2.22302015926e-06
2.18860431229e-06
2.15484287583e-06
2.12172186822e-06
2.09115628196e-06
2.05936740187e-06
2.02860150504e-06
1.99866883295e-06
1.96981498311e-06
1.94199226688e-06
1.91521284195e-06
1.88995902705e-06
1.8659347562e-06
1.84349370228e-06
1.82419805005e-06
1.80490664812e-06
1.78722885172e-06
1.77145620114e-06
1.75755665308e-06
1.74548464498e-06
1.73535968375e-06
1.72725433792e-06
1.72108788545e-06
1.71687356197e-06
1.71318287541e-06
0.767082
0.767082
0.767082
0.767082
0.767082
0.767082
0.767082
0.767082
0.767082
0.767082
0.767082
0.767082
0.767082
0.767082
0.767082
0.767082
0.767082
0.767082
0.767082
0.767082
0.757245484465
0.124722341292
7.03758333788e-05
1.31038887025e-05
5.82605606573e-06
4.07508082304e-06
3.52559009669e-06
3.31926697534e-06
3.21581841692e-06
3.14005148072e-06
3.07196635411e-06
3.00781504296e-06
2.94662349576e-06
2.89047878329e-06
2.83424056385e-06
2.78005148421e-06
2.72795586917e-06
2.67774749867e-06
2.62903666186e-06
2.5818617369e-06
2.53597695954e-06
2.49121117243e-06
2.44769505662e-06
2.40729093893e-06
2.36579217039e-06
2.32519937925e-06
2.28542640793e-06
2.24683455261e-06
2.20915390716e-06
2.17235660767e-06
2.13648294895e-06
2.10383476391e-06
2.07023296371e-06
2.03782589439e-06
2.00694956932e-06
1.97740847367e-06
1.94941571464e-06
1.92298314223e-06
1.89812841361e-06
1.87524501982e-06
1.85407595537e-06
1.83668588531e-06
1.81945354605e-06
1.80420206477e-06
1.79116800304e-06
1.78018920727e-06
1.77130978103e-06
1.76454987627e-06
1.75994171462e-06
1.75606338081e-06
0.767082
0.767082
0.767082
0.767082
0.767082
0.767082
0.767082
0.767082
0.767082
0.767082
0.767082
0.767082
0.767082
0.767082
0.767082
0.767082
0.767082
0.767082
0.767082
0.767003834325
0.684520010909
0.00258842756525
4.20213545495e-05
1.06904270889e-05
5.59450325554e-06
4.2444582872e-06
3.78716336751e-06
3.60207982801e-06
3.49140865474e-06
3.4025858749e-06
3.32090403092e-06
3.24585013047e-06
3.17207239136e-06
3.10146467156e-06
3.03402515615e-06
2.96924175369e-06
2.90715374521e-06
2.84741016456e-06
2.79205672363e-06
2.73621372512e-06
2.68219376561e-06
2.62986840317e-06
2.57898897177e-06
2.52971277919e-06
2.48185586536e-06
2.4373421257e-06
2.39199114983e-06
2.34783774715e-06
2.30486135922e-06
2.26333386946e-06
2.2231958769e-06
2.18429219293e-06
2.14672981564e-06
2.11273668459e-06
2.0784393017e-06
2.04574370849e-06
2.01471328867e-06
1.98572977369e-06
1.95854475366e-06
1.93345673214e-06
1.91035330207e-06
1.88943698026e-06
1.87059435674e-06
1.85607704329e-06
1.84179074408e-06
1.8297959671e-06
1.82019519194e-06
1.81289928311e-06
1.80789137997e-06
1.80379264728e-06
0.767082
0.767082
0.767082
0.767082
0.767082
0.767082
0.767082
0.767082
0.767082
0.767082
0.767082
0.767082
0.767082
0.767082
0.767082
0.767082
0.767082
0.767082
0.767082
0.761694028189
0.518935250111
0.000359551750016
2.78474462415e-05
9.20789501991e-06
5.5504419824e-06
4.49052484822e-06
4.10326550281e-06
3.92529370074e-06
3.80384409895e-06
3.69832979929e-06
3.60002020099e-06
3.50718737009e-06
3.41866242481e-06
3.33450941757e-06
3.2567096669e-06
3.18004460681e-06
3.1065738806e-06
3.03598254455e-06
2.96830699432e-06
2.90307384062e-06
2.84008062091e-06
2.78160904867e-06
2.72283865479e-06
2.66594407966e-06
2.61071798933e-06
2.55735570751e-06
2.50563333231e-06
2.45774665196e-06
2.40932075045e-06
2.36259411701e-06
2.31743466617e-06
2.27389186088e-06
2.2321709869e-06
2.19233237422e-06
2.15637981871e-06
2.12026195024e-06
2.08611597014e-06
2.05429587527e-06
2.02455577654e-06
1.99710568417e-06
1.97200809757e-06
1.9492618135e-06
1.92888896267e-06
1.91284203993e-06
1.89728694755e-06
1.88435993649e-06
1.87394869563e-06
1.8660257503e-06
1.86058520656e-06
1.85628227386e-06
0.767082
0.767082
0.767082
0.767082
0.767082
0.767082
0.767082
0.767082
0.767082
0.767082
0.767082
0.767082
0.767082
0.767082
0.767082
0.767082
0.767082
0.767082
0.767082
0.754538706157
0.295745095405
0.000133139680365
1.9981809608e-05
8.32994145335e-06
5.66144100933e-06
4.81361270825e-06
4.47591654724e-06
4.29186320609e-06
4.15125767177e-06
4.02498910628e-06
3.90694895998e-06
3.79563295476e-06
3.69331385322e-06
3.59317809114e-06
3.49848152275e-06
3.40806640445e-06
3.3217397424e-06
3.24185348324e-06
3.16279618955e-06
3.08684018758e-06
3.01404672904e-06
2.94381139513e-06
2.87884457768e-06
2.81360328018e-06
2.75059766484e-06
2.68994084375e-06
2.63131181355e-06
2.57461280018e-06
2.52234643116e-06
2.46979147426e-06
2.41930350464e-06
2.37082057032e-06
2.32459271909e-06
2.28048990902e-06
2.24062763027e-06
2.20088861655e-06
2.16361228769e-06
2.12865993727e-06
2.09609542038e-06
2.06618847681e-06
2.03887218681e-06
2.0141170929e-06
1.99206815486e-06
1.97466943081e-06
1.95784181357e-06
1.94384332657e-06
1.93250277484e-06
1.92384345211e-06
1.91787272067e-06
1.91328854782e-06
0.767082
0.767082
0.767082
0.767082
0.767082
0.767082
0.767082
0.767082
0.767082
0.767082
0.767082
0.767082
0.767082
0.767082
0.767082
0.767082
0.767082
0.767082
0.767078974382
0.746505791662
0.0436035379084
6.62658894576e-05
1.54249526645e-05
7.87084515511e-06
5.89813586215e-06
5.20698297342e-06
4.89549890013e-06
4.69984802808e-06
4.53596267056e-06
4.38558090745e-06
4.24848860787e-06
4.11626278741e-06
3.99163248692e-06
3.87364468691e-06
3.76506897995e-06
3.65893060373e-06
3.55815128529e-06
3.46219192508e-06
3.37339692841e-06
3.28582218112e-06
3.20196769713e-06
3.12132946634e-06
3.04420556548e-06
2.97261083446e-06
2.90104198802e-06
2.83240175273e-06
2.76625532701e-06
2.70260051713e-06
2.64402793918e-06
2.58526292282e-06
2.52910443945e-06
2.47532146712e-06
2.42397657113e-06
2.37522557039e-06
2.33132547372e-06
2.28781167961e-06
2.24689802087e-06
2.20869249339e-06
2.17325960105e-06
2.14079982994e-06
2.11109696789e-06
2.08424550949e-06
2.06242003904e-06
2.04139366324e-06
2.02324167651e-06
2.00812703635e-06
1.99587772024e-06
1.98651269412e-06
1.98002547704e-06
1.97521870042e-06
0.767082
0.767082
0.767082
0.767082
0.767082
0.767082
0.767082
0.767082
0.767082
0.767082
0.767082
0.767082
0.767082
0.767082
0.767082
0.767082
0.767082
0.767082
0.764657084304
0.581606705176
0.000707426991204
3.90985991655e-05
1.27996943445e-05
7.73097179507e-06
6.2420907902e-06
5.66762983836e-06
5.36530972983e-06
5.14792960714e-06
4.9602662801e-06
4.78314885866e-06
4.61748280294e-06
4.462109399e-06
4.31926774561e-06
4.18119471715e-06
4.05115565812e-06
3.93108592775e-06
3.81400101824e-06
3.7031893616e-06
3.59730392553e-06
3.49979295363e-06
3.40368422854e-06
3.31185303871e-06
3.22403208583e-06
3.14272701389e-06
3.06191764376e-06
2.98466746852e-06
2.91055215576e-06
2.83930286962e-06
2.77384167164e-06
2.70862643845e-06
2.64619446896e-06
2.58682275208e-06
2.53036584302e-06
2.47929827825e-06
2.4285289767e-06
2.38081824012e-06
2.33618387866e-06
2.29456155052e-06
2.25613954003e-06
2.22078437433e-06
2.19066094008e-06
2.16164321554e-06
2.13570116816e-06
2.11308377024e-06
2.09350530717e-06
2.07724503591e-06
2.06409441996e-06
2.05402434688e-06
2.04703225238e-06
2.04192192482e-06
0.767082
0.767082
0.767082
0.767082
0.767082
0.767082
0.767082
0.767082
0.767082
0.767082
0.767082
0.767082
0.767082
0.767082
0.767082
0.767082
0.767082
0.767082
0.754821164597
0.335661914093
0.000178449955029
2.62823764696e-05
1.13472756301e-05
7.87214388432e-06
6.71463583487e-06
6.20222100223e-06
5.89526642318e-06
5.64584571233e-06
5.4206837501e-06
5.21230759487e-06
5.02183873698e-06
4.84013107247e-06
4.66951087506e-06
4.51315200107e-06
4.36235211236e-06
4.21999925199e-06
4.08883638353e-06
3.96150102432e-06
3.84050175268e-06
3.72581015492e-06
3.61957412554e-06
3.51528129037e-06
3.41594706775e-06
3.32389648185e-06
3.23322923421e-06
3.14660372888e-06
3.06371474222e-06
2.98455371714e-06
2.91153300135e-06
2.83932770153e-06
2.77067280634e-06
2.70539062542e-06
2.64337377342e-06
2.58728906464e-06
2.5318972445e-06
2.47974634648e-06
2.43127249559e-06
2.38620797603e-06
2.34450360673e-06
2.30864437345e-06
2.27379806789e-06
2.24236399431e-06
2.21430144774e-06
2.18987779861e-06
2.16885865974e-06
2.15122466516e-06
2.13708158794e-06
2.1262351854e-06
2.11867692358e-06
2.11327814224e-06
0.767082
0.767082
0.767082
0.767082
0.767082
0.767082
0.767082
0.767082
0.767082
0.767082
0.767082
0.767082
0.767082
0.767082
0.767082
0.767082
0.767082
0.767077660538
0.739752494359
0.0464696997205
7.73278720802e-05
1.96602403464e-05
1.06749581297e-05
8.21634024657e-06
7.28610708566e-06
6.80701078206e-06
6.47310938903e-06
6.18489956399e-06
5.92594594574e-06
5.68199958497e-06
5.45528651203e-06
5.2479199482e-06
5.0500678093e-06
4.86886782252e-06
4.69500425229e-06
4.53210222747e-06
4.38180640359e-06
4.23652011857e-06
4.0992499256e-06
3.96886478055e-06
3.8488237441e-06
3.73131768503e-06
3.61944331435e-06
3.51643625284e-06
3.41462586564e-06
3.3181209736e-06
3.22600869674e-06
3.14116993798e-06
3.05714133409e-06
2.97774125352e-06
2.90227581872e-06
2.83066660501e-06
2.76556346013e-06
2.70153155938e-06
2.64132453599e-06
2.58491730904e-06
2.53218471046e-06
2.4859917091e-06
2.4406762014e-06
2.39944559439e-06
2.36190852375e-06
2.32802593998e-06
2.29809401727e-06
2.27173466232e-06
2.24930040122e-06
2.23034630936e-06
2.21757704896e-06
2.20587627832e-06
2.19772375743e-06
2.19203870199e-06
0.767082
0.767082
0.767082
0.767082
0.767082
0.767082
0.767082
0.767082
0.767082
0.767082
0.767082
0.767082
0.767082
0.767082
0.767082
0.767082
0.767082
0.76132978327
0.532912869054
0.00058351336958
4.36095621852e-05
1.62170908346e-05
1.0541361162e-05
8.73399765216e-06
7.94109948035e-06
7.47097176684e-06
7.09777672353e-06
6.76949769727e-06
6.4638214781e-06
6.18547670589e-06
5.92341191407e-06
5.68372497402e-06
5.45671509536e-06
5.24432630562e-06
5.04986639438e-06
4.86367858055e-06
4.69253350279e-06
4.52755517426e-06
4.37251195612e-06
4.2294935303e-06
4.09028260396e-06
3.95881993918e-06
3.83392859618e-06
3.71864592912e-06
3.60592206069e-06
3.49870330368e-06
3.40012928624e-06
3.30315234869e-06
3.21100900024e-06
3.12354555076e-06
3.04079679143e-06
2.96554229598e-06
2.89150831262e-06
2.82189100391e-06
2.75634364286e-06
2.69832547473e-06
2.64138471555e-06
2.58855904724e-06
2.53994143985e-06
2.4954834009e-06
2.45513716083e-06
2.41893445618e-06
2.38940712107e-06
2.36125504251e-06
2.3369490977e-06
2.31677656533e-06
2.30037023183e-06
2.28773999771e-06
2.27891800882e-06
2.27292277021e-06
0.767082
0.767082
0.767082
0.767082
0.767082
0.767082
0.767082
0.767082
0.767082
0.767082
0.767082
0.767082
0.767082
0.767082
0.767082
0.767082
0.767082
0.75513716251
0.227400297991
0.000146215893896
2.91615736496e-05
1.45609810958e-05
1.08159315719e-05
9.41825483746e-06
8.70051392506e-06
8.2010736266e-06
7.77578816959e-06
7.39117369146e-06
7.04316497323e-06
6.72216544507e-06
6.42134122707e-06
6.14229616418e-06
5.88753749064e-06
5.64575677191e-06
5.4247098114e-06
5.21373714226e-06
5.02038957271e-06
4.83436316744e-06
4.65980132037e-06
4.49914179761e-06
4.34377998636e-06
4.19711889168e-06
4.06211444132e-06
3.93030687238e-06
3.80582337605e-06
3.68758154402e-06
3.5788595836e-06
3.47251572011e-06
3.37159734486e-06
3.27967290278e-06
3.189377291e-06
3.10414982208e-06
3.0235870999e-06
2.94806936505e-06
2.88060682349e-06
2.81456000149e-06
2.75322286894e-06
2.69650724294e-06
2.64435611653e-06
2.59967829825e-06
2.5563776744e-06
2.51749114128e-06
2.48317225115e-06
2.45297918354e-06
2.42718961479e-06
2.40543031442e-06
2.38791998015e-06
2.37448066982e-06
2.36500580823e-06
2.35859467903e-06
0.767082
0.767082
0.767082
0.767082
0.767082
0.767082
0.767082
0.767082
0.767082
0.767082
0.767082
0.767082
0.767082
0.767082
0.767082
0.767082
0.766216427164
0.634942746056
0.00253174448317
6.61123631688e-05
2.23129600167e-05
1.39675042468e-05
1.13660925532e-05
1.02271189082e-05
9.53099560434e-06
8.98019321309e-06
8.49907658992e-06
8.05607960907e-06
7.65635127335e-06
7.2840960169e-06
6.94596556701e-06
6.6283900811e-06
6.33976545097e-06
6.06664687586e-06
5.81728470897e-06
5.58001687593e-06
5.36285514927e-06
5.15523402593e-06
4.96000712619e-06
4.78121216326e-06
4.60868224789e-06
4.45001141447e-06
4.29619500162e-06
4.15082903346e-06
4.01352641777e-06
3.88784988467e-06
3.76493590954e-06
3.6489015402e-06
3.54257120465e-06
3.43875682624e-06
3.34088398402e-06
3.24855234797e-06
3.16522491997e-06
3.08354800032e-06
3.00743137841e-06
2.93652482029e-06
2.87069332142e-06
2.81323699856e-06
2.75721072448e-06
2.70612962227e-06
2.6599860214e-06
2.61857533375e-06
2.58174916981e-06
2.54968602166e-06
2.52505354398e-06
2.50190070547e-06
2.48311306116e-06
2.46858572928e-06
2.45832591173e-06
2.45156387381e-06
0.767082
0.767082
0.767082
0.767082
0.767082
0.767082
0.767082
0.767082
0.767082
0.767082
0.767082
0.767082
0.767082
0.767082
0.767082
0.767082
0.754410786118
0.32703637154
0.000239098041985
3.98297460425e-05
1.92617325752e-05
1.41052135869e-05
1.21781770618e-05
1.11566885117e-05
1.04244019858e-05
9.8121396572e-06
9.26313681386e-06
8.75748835349e-06
8.30169591875e-06
7.87819118029e-06
7.4945289482e-06
7.13613909093e-06
6.8106907843e-06
6.50944402283e-06
6.22516357981e-06
5.96016673223e-06
5.71844161168e-06
5.4872848377e-06
5.27597302498e-06
5.07313092577e-06
4.88267227743e-06
4.70785198949e-06
4.53893055775e-06
4.3839541565e-06
4.23367960937e-06
4.09181838221e-06
3.95754681654e-06
3.83524831028e-06
3.71588290813e-06
3.6035154662e-06
3.50162425656e-06
3.40197577689e-06
3.30848123069e-06
3.22106986242e-06
3.14318786112e-06
3.06712083803e-06
2.99667499217e-06
2.93169215449e-06
2.87207125132e-06
2.8176483283e-06
2.77196770723e-06
2.72787124377e-06
2.68872981873e-06
2.6544933944e-06
2.62512297987e-06
2.6004796684e-06
2.58038630311e-06
2.56501713628e-06
2.55405755463e-06
2.54678543451e-06
0.767082
0.767082
0.767082
0.767082
0.767082
0.767082
0.767082
0.767082
0.767082
0.767082
0.767082
0.767082
0.767082
0.767082
0.767082
0.766725116331
0.669501956062
0.008756196378
8.81793689854e-05
2.89909735078e-05
1.81212023466e-05
1.47248568446e-05
1.31644039059e-05
1.21701795112e-05
1.13756136201e-05
1.06833456262e-05
1.00528986731e-05
9.48723696831e-06
8.97174496478e-06
8.49560523669e-06
8.06478387528e-06
7.66859328649e-06
7.29843157857e-06
6.96230619912e-06
6.64503946766e-06
6.35733587557e-06
6.08376135955e-06
5.83445162336e-06
5.59608698047e-06
5.37328436302e-06
5.16928729451e-06
4.97283433222e-06
4.79307628526e-06
4.61943834597e-06
4.45589689978e-06
4.30628520564e-06
4.16077133952e-06
4.02385144622e-06
3.89510775462e-06
3.77808910215e-06
3.66413771367e-06
3.55703429699e-06
3.4607539266e-06
3.36715641111e-06
3.2799333707e-06
3.1989102432e-06
3.12386607391e-06
3.05859590052e-06
2.99525722638e-06
2.93760287517e-06
2.88536652064e-06
2.83856872158e-06
2.79715253326e-06
2.76433399408e-06
2.73319083613e-06
2.70690255918e-06
2.68574563133e-06
2.66933231265e-06
2.65752840465e-06
2.64976004368e-06
0.767082
0.767082
0.767082
0.767082
0.767082
0.767082
0.767082
0.767082
0.767082
0.767082
0.767082
0.767082
0.767082
0.767082
0.767082
0.754407993526
0.342251654662
0.000297563588785
4.92911696295e-05
2.44759196673e-05
1.81558529e-05
1.56727470854e-05
1.42751089094e-05
1.32401999803e-05
1.23632967382e-05
1.15826727182e-05
1.08807062704e-05
1.02377500515e-05
9.66103267259e-06
9.13528288089e-06
8.64810265558e-06
8.20867769648e-06
7.79841238672e-06
7.42617807928e-06
7.08255804619e-06
6.75808090237e-06
6.46348621554e-06
6.18352697456e-06
5.92251769208e-06
5.6845456802e-06
5.45660389983e-06
5.24855719306e-06
5.0480281615e-06
4.85971450007e-06
4.68756909101e-06
4.52119531262e-06
4.36461765578e-06
4.22209901069e-06
4.08362372162e-06
3.95339163052e-06
3.83615777689e-06
3.72162347776e-06
3.61445462105e-06
3.51462083122e-06
3.42594043057e-06
3.33953372231e-06
3.25991587355e-06
3.18657550748e-06
3.11935992789e-06
3.06237619447e-06
3.00703589497e-06
2.95747778503e-06
2.91372742006e-06
2.87537900192e-06
2.84241158646e-06
2.81469520066e-06
2.79211537966e-06
2.77851736113e-06
2.76570835995e-06
2.7573629322e-06
0.767082
0.767082
0.767082
0.767082
0.767082
0.767082
0.767082
0.767082
0.767082
0.767082
0.767082
0.767082
0.767082
0.767082
0.76610347731
0.644784302308
0.00642776580113
9.88252425405e-05
3.52277541236e-05
2.29363301671e-05
1.88697467326e-05
1.68422461909e-05
1.54804696773e-05
1.43557784625e-05
1.3377179323e-05
1.25024525121e-05
1.17175449179e-05
1.10011774615e-05
1.03607476857e-05
9.77841801888e-06
9.24820538225e-06
8.75561664664e-06
8.31138216121e-06
7.89615026301e-06
7.51972990391e-06
7.16515791481e-06
6.84333338007e-06
6.53813857501e-06
6.26006381963e-06
5.99521688863e-06
5.75373948511e-06
5.52248519953e-06
5.31197354789e-06
5.10895918116e-06
4.91851129535e-06
4.74499882333e-06
4.57678407676e-06
4.41918450373e-06
4.27631346394e-06
4.13732676195e-06
4.00728338006e-06
3.88576181312e-06
3.77655205929e-06
3.67079299304e-06
3.57224937619e-06
3.48084922047e-06
3.40100356462e-06
3.3235094054e-06
3.2525517325e-06
3.18799065407e-06
3.12970055359e-06
3.07743291417e-06
3.03571758803e-06
2.99522640942e-06
2.9603039024e-06
2.93099226441e-06
2.90704251113e-06
2.8882577742e-06
2.87464955096e-06
2.86583136158e-06
0.767082
0.767082
0.767082
0.767082
0.767082
0.767082
0.767082