/*--------------------------------*- C++ -*----------------------------------*\
| =========                 |                                                 |
| \\      /  F ield         | foam-extend: Open Source CFD                    |
|  \\    /   O peration     | Version:     4.1                                |
|   \\  /    A nd           | Web:         http://www.foam-extend.org         |
|    \\/     M anipulation  |                                                 |
\*---------------------------------------------------------------------------*/
FoamFile
{
    version     2.0;
    format      ascii;
    class       volScalarField;
    location    "0.0008";
    object      N2Plus;
}
// * * * * * * * * * * * * * * * * * * * * * * * * * * * * * * * * * * * * * //

dimensions      [0 0 0 0 0 0 0];

internalField   nonuniform List<scalar> 
8400
(
7.21720708638e-185
7.21720708642e-185
7.21720708646e-185
7.2172070865e-185
7.21720708654e-185
7.21720708658e-185
7.21720708661e-185
7.21720708665e-185
7.21720708669e-185
7.21720708672e-185
7.21720708676e-185
7.21720708679e-185
7.21720708683e-185
7.21720708686e-185
7.21720708689e-185
7.21720708692e-185
7.21720708704e-185
7.21720709164e-185
7.21720735206e-185
7.21722215215e-185
7.21802888518e-185
7.26212374162e-185
7.79013649836e-185
5.85287603481e-24
1.56205506729e-06
2.20366500339e-05
1.39887792834e-05
1.01859512292e-05
8.79495141597e-06
8.37135655257e-06
8.23594309124e-06
8.17205829481e-06
8.13641156372e-06
8.10698604938e-06
8.08081212036e-06
8.05677497355e-06
8.03443055285e-06
8.01324378527e-06
7.99283604995e-06
7.9729363533e-06
7.95327346189e-06
7.93365815569e-06
7.9138868901e-06
7.89372451751e-06
7.87299494545e-06
7.85490517685e-06
7.83265434555e-06
7.80953955838e-06
7.78540235487e-06
7.76020763877e-06
7.7339532493e-06
7.70667409373e-06
7.67841433288e-06
7.64927963358e-06
7.61965156117e-06
7.58951172035e-06
7.5590967502e-06
7.52872689741e-06
7.49868961779e-06
7.46933024429e-06
7.44121120438e-06
7.4145756568e-06
7.38974654101e-06
7.36712359698e-06
7.34711400448e-06
7.32994506736e-06
7.31589583057e-06
7.30518787475e-06
7.29798140564e-06
7.29234514573e-06
7.21720707412e-185
7.21720707414e-185
7.21720707416e-185
7.21720707417e-185
7.21720707419e-185
7.2172070742e-185
7.21720707422e-185
7.21720707423e-185
7.21720707425e-185
7.21720707426e-185
7.21720707428e-185
7.21720707429e-185
7.2172070743e-185
7.21720707432e-185
7.21720707433e-185
7.21720707435e-185
7.21720707478e-185
7.21720709875e-185
7.21720847775e-185
7.21728515217e-185
7.2216035277e-185
7.31964085964e-185
4.00978162682e-71
5.55720577688e-16
1.63256979391e-05
1.81247929587e-05
1.19281335554e-05
9.24596151989e-06
8.36826460293e-06
8.12006741626e-06
8.04402802157e-06
8.01777941407e-06
7.99970145894e-06
7.9866657032e-06
7.97369993246e-06
7.96045923363e-06
7.94693712041e-06
7.93290844164e-06
7.91831173107e-06
7.89965627378e-06
7.88375340848e-06
7.86702755995e-06
7.84940314776e-06
7.83079430079e-06
7.81115377316e-06
7.79038427533e-06
7.76843380906e-06
7.74530112494e-06
7.72113417879e-06
7.69574976987e-06
7.66919285162e-06
7.64157631165e-06
7.6129807765e-06
7.58355281913e-06
7.55373303149e-06
7.52351840966e-06
7.49315703933e-06
7.46298618778e-06
7.43328589746e-06
7.40442722579e-06
7.37696178516e-06
7.35101812606e-06
7.32694650024e-06
7.3051103818e-06
7.28580767949e-06
7.26930092602e-06
7.25582774742e-06
7.24557070899e-06
7.23865962862e-06
7.23346281177e-06
7.21720706822e-185
7.21720706823e-185
7.21720706824e-185
7.21720706825e-185
7.21720706826e-185
7.21720706826e-185
7.21720706827e-185
7.21720706828e-185
7.21720706829e-185
7.2172070683e-185
7.21720706831e-185
7.21720706832e-185
7.21720706833e-185
7.21720706834e-185
7.21720706834e-185
7.21720706839e-185
7.21720707077e-185
7.21720720727e-185
7.21721506489e-185
7.21764857015e-185
7.24191192746e-185
7.57163668702e-185
1.36799102157e-33
2.26905854274e-07
2.44292315039e-05
1.48892617232e-05
1.03796493924e-05
8.65358504008e-06
8.13103308694e-06
7.99194929602e-06
7.95244210199e-06
7.93888165828e-06
7.93265257422e-06
7.92649170898e-06
7.91952285875e-06
7.91157608116e-06
7.8991825627e-06
7.88916175751e-06
7.87802629452e-06
7.86574211127e-06
7.85225507399e-06
7.83753510148e-06
7.82154827322e-06
7.80423289974e-06
7.78555080933e-06
7.76548079688e-06
7.74421959784e-06
7.7215664726e-06
7.6975503044e-06
7.67224758228e-06
7.64574067211e-06
7.61812776514e-06
7.58967457799e-06
7.56059986453e-06
7.5309743184e-06
7.50106219083e-06
7.47114664082e-06
7.44150167679e-06
7.41258642888e-06
7.3847015575e-06
7.35806516537e-06
7.33301779737e-06
7.30989771911e-06
7.28897777764e-06
7.27053290133e-06
7.25480286509e-06
7.24208073894e-06
7.23241786408e-06
7.22589767404e-06
7.22115906767e-06
7.2172070646e-185
7.21720706461e-185
7.21720706462e-185
7.21720706462e-185
7.21720706463e-185
7.21720706464e-185
7.21720706464e-185
7.21720706465e-185
7.21720706466e-185
7.21720706466e-185
7.21720706467e-185
7.21720706467e-185
7.21720706468e-185
7.21720706469e-185
7.2172070647e-185
7.21720706487e-185
7.21720707441e-185
7.2172076292e-185
7.21723922902e-185
7.21901785012e-185
7.28335477557e-185
1.11322411746e-71
5.12399946376e-19
5.8388822064e-06
1.99751663534e-05
1.27629707298e-05
9.52049786159e-06
8.39799475683e-06
8.07729080492e-06
7.99206507448e-06
7.9650407337e-06
7.95221397492e-06
7.94476349727e-06
7.93730630663e-06
7.92919435566e-06
7.92027264109e-06
7.90704451662e-06
7.89620577182e-06
7.88435914695e-06
7.87136699435e-06
7.85716404737e-06
7.84168644492e-06
7.82489664142e-06
7.80674063113e-06
7.78717529102e-06
7.76618141921e-06
7.74391374073e-06
7.72031912916e-06
7.69537556929e-06
7.66916972762e-06
7.64182334911e-06
7.6134540861e-06
7.58428278853e-06
7.55466631718e-06
7.52461909639e-06
7.49441381338e-06
7.46435433762e-06
7.43470755388e-06
7.40585851833e-06
7.37821777686e-06
7.35191075563e-06
7.32725437948e-06
7.30457807386e-06
7.28412719642e-06
7.2661479986e-06
7.2508503691e-06
7.23839842045e-06
7.22899415948e-06
7.22264178355e-06
7.21813712398e-06
7.21720706215e-185
7.21720706216e-185
7.21720706216e-185
7.21720706217e-185
7.21720706217e-185
7.21720706218e-185
7.21720706218e-185
7.21720706219e-185
7.21720706219e-185
7.2172070622e-185
7.2172070622e-185
7.21720706221e-185
7.21720706221e-185
7.21720706222e-185
7.21720706223e-185
7.21720706289e-185
7.21720710048e-185
7.21720928021e-185
7.21733110742e-185
7.22426070019e-185
7.35757808389e-185
6.78070971284e-71
3.11739056715e-13
2.47396985465e-05
1.7143189124e-05
1.14538999244e-05
9.08837928228e-06
8.3401675868e-06
8.13240118027e-06
8.06947393126e-06
8.04598191299e-06
8.02904232874e-06
8.01667583755e-06
8.00427803625e-06
7.99150361231e-06
7.97819889759e-06
7.96431682428e-06
7.94978251496e-06
7.93097495349e-06
7.91457939257e-06
7.89715229243e-06
7.87866308243e-06
7.8589673861e-06
7.83800956184e-06
7.81576707721e-06
7.79221855693e-06
7.76735137327e-06
7.74121737088e-06
7.71407568281e-06
7.68578902824e-06
7.65647461496e-06
7.62632722621e-06
7.59548267574e-06
7.56418456846e-06
7.53285940141e-06
7.50153276171e-06
7.47050224079e-06
7.44009591836e-06
7.41055623738e-06
7.38551721875e-06
7.35883873918e-06
7.33392984729e-06
7.31105730926e-06
7.29054255641e-06
7.27260295892e-06
7.25736286484e-06
7.24496727595e-06
7.23552481402e-06
7.22911402014e-06
7.22464953489e-06
7.21720706039e-185
7.21720706039e-185
7.2172070604e-185
7.2172070604e-185
7.21720706041e-185
7.21720706041e-185
7.21720706041e-185
7.21720706042e-185
7.21720706042e-185
7.21720706043e-185
7.21720706043e-185
7.21720706044e-185
7.21720706044e-185
7.21720706044e-185
7.21720706049e-185
7.21720706271e-185
7.21720719094e-185
7.2172145844e-185
7.21762345852e-185
7.24056274935e-185
7.55792567792e-185
1.96471550107e-35
1.79633164627e-07
2.47861537385e-05
1.51512585582e-05
1.06306348026e-05
8.90753235196e-06
8.39027239454e-06
8.2451826118e-06
8.19478620455e-06
8.16873236365e-06
8.14960522648e-06
8.13117052355e-06
8.11274921416e-06
8.09423391107e-06
8.07532888738e-06
8.05592408252e-06
8.0359431483e-06
8.0152605868e-06
7.99378075693e-06
7.97144124713e-06
7.9483182782e-06
7.92414339986e-06
7.89889213775e-06
7.86924751649e-06
7.84183273184e-06
7.81662293328e-06
7.78695766921e-06
7.75625886043e-06
7.72458384828e-06
7.69231877664e-06
7.65940330846e-06
7.62599607083e-06
7.59234014861e-06
7.55861772995e-06
7.52523532271e-06
7.49248905504e-06
7.46052176246e-06
7.42965591188e-06
7.40016199127e-06
7.37230668715e-06
7.34647564171e-06
7.32293017275e-06
7.30180079142e-06
7.28330707425e-06
7.26762409711e-06
7.25493740811e-06
7.24527730264e-06
7.23870556396e-06
7.2342210118e-06
7.21720705907e-185
7.21720705907e-185
7.21720705908e-185
7.21720705908e-185
7.21720705908e-185
7.21720705909e-185
7.21720705909e-185
7.21720705909e-185
7.2172070591e-185
7.2172070591e-185
7.2172070591e-185
7.21720705911e-185
7.21720705911e-185
7.21720705912e-185
7.21720705921e-185
7.21720706441e-185
7.21720736111e-185
7.21722424973e-185
7.21814681639e-185
7.26833928109e-185
7.86305352987e-185
5.93641481477e-22
2.34109235702e-06
2.1520180381e-05
1.37484316754e-05
1.01547494049e-05
8.89084185657e-06
8.5272795525e-06
8.41841558903e-06
8.37078846865e-06
8.33772201823e-06
8.31054592937e-06
8.28405046066e-06
8.25799097397e-06
8.23196360023e-06
8.20579076708e-06
8.17939907601e-06
8.15261715382e-06
8.12537169377e-06
8.09779689311e-06
8.06953260517e-06
8.04049936032e-06
8.01065380415e-06
7.9799032539e-06
7.94830410505e-06
7.91593769054e-06
7.88262170719e-06
7.84850309632e-06
7.81359939515e-06
7.77794148118e-06
7.74170268415e-06
7.70500031447e-06
7.66820603996e-06
7.63148671407e-06
7.59494058627e-06
7.55887557511e-06
7.52352498592e-06
7.48932903679e-06
7.45654794997e-06
7.42533876158e-06
7.39598663107e-06
7.36873290587e-06
7.34734760672e-06
7.32513396791e-06
7.30576249585e-06
7.28934899333e-06
7.27601347402e-06
7.26584198048e-06
7.25890209496e-06
7.25422103655e-06
7.21720705805e-185
7.21720705805e-185
7.21720705805e-185
7.21720705806e-185
7.21720705806e-185
7.21720705806e-185
7.21720705807e-185
7.21720705807e-185
7.21720705807e-185
7.21720705808e-185
7.21720705808e-185
7.21720705808e-185
7.21720705808e-185
7.21720705809e-185
7.21720705838e-185
7.21720707486e-185
7.21720802748e-185
7.21726150126e-185
7.22027130287e-185
7.30229300031e-185
2.53662765035e-71
2.94715693351e-17
1.05868748729e-05
1.92509387967e-05
1.27516640532e-05
9.9195748678e-06
8.98866155851e-06
8.7255100434e-06
8.6330288748e-06
8.58439844779e-06
8.54228527717e-06
8.50570085217e-06
8.4700307197e-06
8.43487917015e-06
8.4001195663e-06
8.36549310938e-06
8.33092252152e-06
8.29623616192e-06
8.26152674832e-06
8.22659459595e-06
8.19122314692e-06
8.15534875083e-06
8.11885345318e-06
8.0819263637e-06
8.04437846242e-06
8.00611148365e-06
7.96715538945e-06
7.92750481307e-06
7.88757925646e-06
7.84713508042e-06
7.80645116648e-06
7.76559519129e-06
7.72807616488e-06
7.68740433106e-06
7.64720907646e-06
7.60799498772e-06
7.56973714885e-06
7.532759368e-06
7.49733529042e-06
7.46373209443e-06
7.43245906555e-06
7.40350506259e-06
7.37712564809e-06
7.35364664538e-06
7.33316903914e-06
7.31582832335e-06
7.30174414653e-06
7.29100333941e-06
7.28366527354e-06
7.27882006072e-06
7.21720705724e-185
7.21720705724e-185
7.21720705725e-185
7.21720705725e-185
7.21720705725e-185
7.21720705725e-185
7.21720705726e-185
7.21720705726e-185
7.21720705726e-185
7.21720705726e-185
7.21720705727e-185
7.21720705727e-185
7.21720705727e-185
7.21720705729e-185
7.21720705805e-185
7.21720710224e-185
7.21720966118e-185
7.21735255865e-185
7.22546388555e-185
7.37530631537e-185
7.84605532394e-71
4.27536094557e-12
2.5766189453e-05
1.74526591007e-05
1.2022583322e-05
9.83295186796e-06
9.16632910727e-06
8.97028649332e-06
8.88703628344e-06
8.83023753221e-06
8.78140691971e-06
8.73059360141e-06
8.68444781316e-06
8.6392530075e-06
8.59466199925e-06
8.55052505582e-06
8.50686703123e-06
8.46357618213e-06
8.42041805857e-06
8.37730147492e-06
8.33401790713e-06
8.29047441993e-06
8.25009562403e-06
8.20611881414e-06
8.16168184113e-06
8.11679961031e-06
8.07145043984e-06
8.02606713711e-06
7.98030514278e-06
7.93449438398e-06
7.88856285048e-06
7.84273256395e-06
7.7971517947e-06
7.7523724827e-06
7.70832058128e-06
7.66525698799e-06
7.62342351198e-06
7.58329435503e-06
7.54511371348e-06
7.50898855922e-06
7.47862016501e-06
7.4475371477e-06
7.41928608779e-06
7.39419670132e-06
7.37232984529e-06
7.35381991339e-06
7.33879024002e-06
7.32731684873e-06
7.31946831808e-06
7.31438110869e-06
7.21720705659e-185
7.21720705659e-185
7.21720705659e-185
7.2172070566e-185
7.2172070566e-185
7.2172070566e-185
7.2172070566e-185
7.21720705661e-185
7.21720705661e-185
7.21720705661e-185
7.21720705661e-185
7.21720705661e-185
7.21720705662e-185
7.21720705666e-185
7.21720705879e-185
7.2172071813e-185
7.21721420304e-185
7.21760059881e-185
7.23912660272e-185
7.54359786084e-185
1.39503622064e-35
1.17188400961e-07
2.57092175192e-05
1.59704582181e-05
1.15377619427e-05
9.87635837437e-06
9.39472109038e-06
9.24627938229e-06
9.16424847935e-06
9.10157471666e-06
9.04190445207e-06
8.98363038543e-06
8.92666655019e-06
8.87080278771e-06
8.81595135674e-06
8.7617728603e-06
8.70818123827e-06
8.65525708421e-06
8.60283086909e-06
8.55063580365e-06
8.498527648e-06
8.44683743545e-06
8.39508325831e-06
8.34336823717e-06
8.29146681808e-06
8.23938329068e-06
8.18732616215e-06
8.13532324112e-06
8.08326104086e-06
8.03122636997e-06
7.97970152439e-06
7.93194553301e-06
7.88153944994e-06
7.83192288704e-06
7.78350691105e-06
7.73633089056e-06
7.69072806466e-06
7.64693227228e-06
7.60555238383e-06
7.566516831e-06
7.5301084762e-06
7.49657283419e-06
7.46615784177e-06
7.43923864307e-06
7.41584038371e-06
7.39603811215e-06
7.37993847377e-06
7.36764588829e-06
7.35924792113e-06
7.35392149076e-06
7.21720705605e-185
7.21720705606e-185
7.21720705606e-185
7.21720705606e-185
7.21720705606e-185
7.21720705606e-185
7.21720705607e-185
7.21720705607e-185
7.21720705607e-185
7.21720705607e-185
7.21720705607e-185
7.21720705608e-185
7.21720705608e-185
7.21720705617e-185
7.21720706105e-185
7.217207338e-185
7.21722303539e-185
7.21807743693e-185
7.264389237e-185
7.81503015708e-185
2.59487699787e-23
1.51360774027e-06
2.26058367987e-05
1.48433252259e-05
1.12667366394e-05
1.00401263713e-05
9.69605536846e-06
9.5658571891e-06
9.47859890812e-06
9.40291460282e-06
9.33003661506e-06
9.25906436161e-06
9.18963347792e-06
9.12154137683e-06
9.05514080182e-06
8.98977886574e-06
8.92536386757e-06
8.86219727605e-06
8.79979185557e-06
8.7380029945e-06
8.6766490252e-06
8.61579605493e-06
8.55540243331e-06
8.49517345611e-06
8.43892408668e-06
8.37910251926e-06
8.31964274297e-06
8.26053494666e-06
8.20168022551e-06
8.14326392091e-06
8.0856565824e-06
8.02882664359e-06
7.97293783117e-06
7.91815455228e-06
7.86471858688e-06
7.81320962514e-06
7.76717679128e-06
7.71963046129e-06
7.67451738945e-06
7.63237592774e-06
7.59312896616e-06
7.55716915941e-06
7.52461990079e-06
7.49565512178e-06
7.47047899372e-06
7.4492007908e-06
7.4319174458e-06
7.41870719719e-06
7.4096155996e-06
7.40386364822e-06
7.21720705561e-185
7.21720705561e-185
7.21720705561e-185
7.21720705561e-185
7.21720705562e-185
7.21720705562e-185
7.21720705562e-185
7.21720705562e-185
7.21720705562e-185
7.21720705562e-185
7.21720705563e-185
7.21720705563e-185
7.21720705563e-185
7.21720705589e-185
7.21720707023e-185
7.21720789133e-185
7.21725371765e-185
7.21980129197e-185
7.29672751468e-185
1.91060449896e-71
5.40486932998e-18
7.61946268813e-06
2.03942004125e-05
1.39447531045e-05
1.11795495782e-05
1.02905892602e-05
1.00455399566e-05
9.92613539664e-06
9.82464443815e-06
9.73365511478e-06
9.64518097284e-06
9.55907844327e-06
9.47562148648e-06
9.39409624339e-06
9.3147726558e-06
9.23727477796e-06
9.16126545539e-06
9.0864659011e-06
9.01677746037e-06
8.94455249435e-06
8.87323439799e-06
8.80257163947e-06
8.73282502972e-06
8.66371065733e-06
8.59504869683e-06
8.52722507205e-06
8.45999717229e-06
8.39343630458e-06
8.32743131343e-06
8.26593904787e-06
8.20160621297e-06
8.13863371911e-06
8.07697637125e-06
8.0169151337e-06
7.95850789103e-06
7.90200248213e-06
7.84806404508e-06
7.79659990674e-06
7.74802382095e-06
7.70603533018e-06
7.66367281618e-06
7.6247879226e-06
7.58978572907e-06
7.55875839387e-06
7.53177267697e-06
7.50899987461e-06
7.49056523113e-06
7.4764663078e-06
7.4667360635e-06
7.46069963703e-06
7.21720705523e-185
7.21720705523e-185
7.21720705523e-185
7.21720705524e-185
7.21720705524e-185
7.21720705524e-185
7.21720705524e-185
7.21720705524e-185
7.21720705525e-185
7.21720705525e-185
7.21720705525e-185
7.21720705525e-185
7.21720705526e-185
7.21720705598e-185
7.21720709655e-185
7.2172094064e-185
7.21733641205e-185
7.22440519125e-185
7.36078538007e-185
6.50944856886e-71
8.22950397233e-14
2.22339839738e-05
1.85873276989e-05
1.33021643441e-05
1.1227541062e-05
1.06202068389e-05
1.04364988165e-05
1.03126586049e-05
1.01984814361e-05
1.00897238659e-05
9.98419343321e-06
9.88201758308e-06
9.78299816762e-06
9.69077946927e-06
9.5973095493e-06
9.50604049937e-06
9.41720960564e-06
9.33039706414e-06
9.24511747841e-06
9.16157077883e-06
9.07941561131e-06
8.99842658701e-06
8.91884724871e-06
8.84390590281e-06
8.76637976467e-06
8.68976556375e-06
8.61394405574e-06
8.53946568402e-06
8.46609618674e-06
8.39383476509e-06
8.32274757468e-06
8.25717707005e-06
8.18939874446e-06
8.12339222916e-06
8.05979746656e-06
7.99857892358e-06
7.94003079491e-06
7.88428123635e-06
7.8315864711e-06
7.78254210666e-06
7.73709026551e-06
7.69918650178e-06
7.66166872709e-06
7.62835919599e-06
7.59952828585e-06
7.57517137359e-06
7.55538789898e-06
7.54023564555e-06
7.52974907507e-06
7.52328579624e-06
7.21720705491e-185
7.21720705491e-185
7.21720705491e-185
7.21720705491e-185
7.21720705492e-185
7.21720705492e-185
7.21720705492e-185
7.21720705492e-185
7.21720705492e-185
7.21720705492e-185
7.21720705493e-185
7.21720705493e-185
7.21720705497e-185
7.21720705722e-185
7.21720718494e-185
7.21721441875e-185
7.2176082175e-185
7.23924421459e-185
7.54658260051e-185
1.19423573401e-35
8.91283582102e-08
2.67619620095e-05
1.70699436726e-05
1.28954084069e-05
1.14062548534e-05
1.10103375789e-05
1.08540162943e-05
1.07239126452e-05
1.05920742106e-05
1.04654429026e-05
1.0342858047e-05
1.02275517961e-05
1.0112493792e-05
1.00007059013e-05
9.89237369776e-06
9.78685953395e-06
9.68436082693e-06
9.5844954744e-06
9.49061469073e-06
9.39493471335e-06
9.30120651641e-06
9.20933284004e-06
9.11896394063e-06
9.03040196505e-06
8.9433590112e-06
8.8613096492e-06
8.77704554045e-06
8.69411631167e-06
8.61258318136e-06
8.53292815589e-06
8.45506271057e-06
8.37891913308e-06
8.30482597768e-06
8.23695079841e-06
8.16788144597e-06
8.10146908975e-06
8.03794572866e-06
7.9779609923e-06
7.92145915887e-06
7.86878404939e-06
7.82001431509e-06
7.77541354135e-06
7.73517878251e-06
7.70361822099e-06
7.6727535745e-06
7.64670135993e-06
7.62554576112e-06
7.60932664498e-06
7.59805743107e-06
7.59115761115e-06
7.21720705463e-185
7.21720705463e-185
7.21720705464e-185
7.21720705464e-185
7.21720705464e-185
7.21720705464e-185
7.21720705464e-185
7.21720705464e-185
7.21720705464e-185
7.21720705465e-185
7.21720705465e-185
7.21720705465e-185
7.21720705476e-185
7.21720706068e-185
7.21720739128e-185
7.21722577889e-185
7.21820880918e-185
7.27017778111e-185
7.87992503142e-185
3.64386557905e-22
1.71876782817e-06
2.31804889329e-05
1.59158916477e-05
1.27309611114e-05
1.17196583171e-05
1.14607549932e-05
1.13107181965e-05
1.11625145862e-05
1.10125098401e-05
1.08657751063e-05
1.0723640692e-05
1.05867041807e-05
1.04539876995e-05
1.03258571878e-05
1.02053558899e-05
1.0084988898e-05
9.96800226647e-06
9.85403439985e-06
9.74326998544e-06
9.63508866226e-06
9.52932098949e-06
9.42969881455e-06
9.32856501073e-06
9.22940860766e-06
9.13201579448e-06
9.03680168942e-06
8.94348440731e-06
8.85571532344e-06
8.76621325524e-06
8.67883944057e-06
8.59350505566e-06
8.51041547022e-06
8.43005030614e-06
8.35245301982e-06
8.28151506141e-06
8.20986254201e-06
8.14148366808e-06
8.07703576881e-06
8.01646687978e-06
7.96006013114e-06
7.90802936483e-06
7.86054559397e-06
7.81773466737e-06
7.78359594728e-06
7.75070029896e-06
7.72300222316e-06
7.700506955e-06
7.68323060744e-06
7.67118808585e-06
7.6638665572e-06
7.21720705439e-185
7.21720705439e-185
7.21720705439e-185
7.2172070544e-185
7.2172070544e-185
7.2172070544e-185
7.2172070544e-185
7.2172070544e-185
7.2172070544e-185
7.2172070544e-185
7.21720705441e-185
7.21720705441e-185
7.21720705481e-185
7.21720707705e-185
7.217208329e-185
7.21727681115e-185
7.22102834059e-185
7.31547434794e-185
3.03679181381e-71
5.88503931332e-17
1.01617764941e-05
2.08122170501e-05
1.50785291045e-05
1.27824367625e-05
1.21477367513e-05
1.19627590801e-05
1.1801886669e-05
1.16262396216e-05
1.14515452546e-05
1.12819451683e-05
1.11187391674e-05
1.09615319698e-05
1.08142976072e-05
1.06680067427e-05
1.05271304374e-05
1.03906317514e-05
1.02583455429e-05
1.01339501707e-05
1.00092535232e-05
9.88763117413e-06
9.76943714855e-06
9.65393159699e-06
9.54545702129e-06
9.43535250644e-06
9.32761222745e-06
9.22256662123e-06
9.11978937899e-06
9.0192752984e-06
8.92528877779e-06
8.82990925529e-06
8.73718120522e-06
8.64700349281e-06
8.56004372591e-06
8.47627860444e-06
8.39962104647e-06
8.32270964827e-06
8.24968841171e-06
8.18056293158e-06
8.11570069833e-06
8.05554219393e-06
8.00012603843e-06
7.94959578389e-06
7.90419460253e-06
7.867934066e-06
7.83300068128e-06
7.80351359101e-06
7.77951341996e-06
7.76104274926e-06
7.74811615733e-06
7.7402670005e-06
7.21720705418e-185
7.21720705418e-185
7.21720705418e-185
7.21720705418e-185
7.21720705419e-185
7.21720705419e-185
7.21720705419e-185
7.21720705419e-185
7.21720705419e-185
7.21720705419e-185
7.21720705419e-185
7.21720705422e-185
7.21720705569e-185
7.21720713785e-185
7.217211731e-185
7.21745908901e-185
7.23088989849e-185
7.44971697129e-185
7.31269741243e-47
1.9191493761e-09
2.82641356096e-05
1.8922471269e-05
1.45572680611e-05
1.30219845687e-05
1.26572963073e-05
1.24974690641e-05
1.2308666859e-05
1.21073207811e-05
1.19071262934e-05
1.17136201627e-05
1.15321435339e-05
1.13539658874e-05
1.11826807509e-05
1.10177982147e-05
1.08628973231e-05
1.07093543948e-05
1.0561150302e-05
1.04174509177e-05
1.02822549177e-05
1.014721254e-05
1.00159844707e-05
9.88795552689e-06
9.76369510234e-06
9.64652930069e-06
9.52809969849e-06
9.4129243211e-06
9.3004993962e-06
9.19098887714e-06
9.08870255192e-06
8.98507085346e-06
8.88475147105e-06
8.78755499943e-06
8.69371524241e-06
8.60368043947e-06
8.52153257952e-06
8.43929650124e-06
8.3611185474e-06
8.28745527606e-06
8.21858762332e-06
8.1547090356e-06
8.0958753819e-06
8.04231141486e-06
7.99815553143e-06
7.95556619649e-06
7.91859650667e-06
7.8873805875e-06
7.8619513266e-06
7.84234743877e-06
7.82856042714e-06
7.82023188356e-06
7.21720705399e-185
7.21720705399e-185
7.217207054e-185
7.217207054e-185
7.217207054e-185
7.217207054e-185
7.217207054e-185
7.217207054e-185
7.217207054e-185
7.217207054e-185
7.21720705401e-185
7.2172070541e-185
7.21720705921e-185
7.21720734143e-185
7.21722289095e-185
7.21804775809e-185
7.26147430825e-185
7.78631379147e-185
7.46268512654e-25
7.80013828801e-07
2.49197353476e-05
1.74894757684e-05
1.4363526404e-05
1.34278790562e-05
1.32196359053e-05
1.30518680106e-05
1.28295965654e-05
1.25990553751e-05
1.23771129936e-05
1.21595477869e-05
1.19510103298e-05
1.1751149346e-05
1.15634988772e-05
1.13789258143e-05
1.1201770392e-05
1.1035031819e-05
1.08698538096e-05
1.07107024129e-05
1.055633302e-05
1.04114274711e-05
1.02665442367e-05
1.01259621061e-05
9.9895548198e-06
9.86104009937e-06
9.73171167901e-06
9.60626926383e-06
9.48428127011e-06
9.36551801088e-06
9.25466586501e-06
9.14306264892e-06
9.03479411348e-06
8.93051582936e-06
8.83020042767e-06
8.7381338977e-06
8.64584872539e-06
8.55809517072e-06
8.47513699618e-06
8.39703804358e-06
8.32408509957e-06
8.25640880267e-06
8.19816104613e-06
8.14155186474e-06
8.09066478784e-06
8.04575374219e-06
8.00676702004e-06
7.97392709697e-06
7.94716403961e-06
7.92648460276e-06
7.91188693827e-06
7.90302208472e-06
7.21720705383e-185
7.21720705383e-185
7.21720705383e-185
7.21720705383e-185
7.21720705383e-185
7.21720705383e-185
7.21720705383e-185
7.21720705384e-185
7.21720705384e-185
7.21720705384e-185
7.21720705385e-185
7.21720705425e-185
7.21720707649e-185
7.21720830994e-185
7.21727491255e-185
7.22086348624e-185
7.31446530486e-185
2.69800742888e-71
2.31867340022e-17
8.0333204343e-06
2.20115669289e-05
1.65478116441e-05
1.44737327597e-05
1.39887379385e-05
1.38413166856e-05
1.36266720768e-05
1.33704707975e-05
1.31075494214e-05
1.28529532235e-05
1.26095867158e-05
1.23811709521e-05
1.2158680992e-05
1.19453619207e-05
1.17452286002e-05
1.15488726034e-05
1.13599523579e-05
1.11822202735e-05
1.10069105271e-05
1.08373505562e-05
1.06738212095e-05
1.05196601172e-05
1.03658772086e-05
1.02171879357e-05
1.00770893044e-05
9.93705293533e-06
9.80108610973e-06
9.66912320943e-06
9.54138391268e-06
9.42162012413e-06
9.3018369937e-06
9.18624993526e-06
9.07491018737e-06
8.96787981299e-06
8.86965232851e-06
8.77178282698e-06
8.67854011804e-06
8.59074811041e-06
8.50825130178e-06
8.43121711538e-06
8.36416040083e-06
8.29856182446e-06
8.23883323678e-06
8.18512795645e-06
8.13784329522e-06
8.09687838763e-06
8.06226417655e-06
8.03409571222e-06
8.01228164149e-06
7.99680084095e-06
7.98737050845e-06
7.21720705368e-185
7.21720705368e-185
7.21720705368e-185
7.21720705368e-185
7.21720705368e-185
7.21720705368e-185
7.21720705368e-185
7.21720705369e-185
7.21720705369e-185
7.21720705369e-185
7.21720705372e-185
7.21720705557e-185
7.21720715696e-185
7.21721271347e-185
7.21750650869e-185
7.23312931902e-185
7.47900138636e-185
1.02406605974e-46
4.46947460433e-09
2.84307448218e-05
1.99052431683e-05
1.60589627612e-05
1.48542161454e-05
1.46380426378e-05
1.44791481362e-05
1.42113904921e-05
1.39138380151e-05
1.36183418754e-05
1.33392904284e-05
1.30688083517e-05
1.2811106116e-05
1.25693622004e-05
1.23338717135e-05
1.21130498099e-05
1.1896937104e-05
1.16899627649e-05
1.14950539878e-05
1.13033505499e-05
1.11185766956e-05
1.0940219657e-05
1.07724299828e-05
1.06059323347e-05
1.04445830591e-05
1.02932294022e-05
1.01417726058e-05
9.99556586407e-06
9.85400620918e-06
9.72143443397e-06
9.58855264401e-06
9.4607798858e-06
9.33763532511e-06
9.21927319926e-06
9.10993414876e-06
9.00132796755e-06
8.89788674783e-06
8.79979620823e-06
8.70710091317e-06
8.62471834425e-06
8.54333339132e-06
8.4683135549e-06
8.3994606982e-06
8.3368958157e-06
8.28087792344e-06
8.2313157503e-06
8.1884555996e-06
8.15216350111e-06
8.12713388778e-06
8.10416014603e-06
8.08777117805e-06
8.07775189248e-06
7.21720705354e-185
7.21720705355e-185
7.21720705355e-185
7.21720705355e-185
7.21720705355e-185
7.21720705355e-185
7.21720705355e-185
7.21720705355e-185
7.21720705355e-185
7.21720705356e-185
7.2172070537e-185
7.21720706137e-185
7.21720747535e-185
7.21722970713e-185
7.21838062537e-185
7.27669483729e-185
7.22505869324e-73
4.73343724414e-22
1.48402114735e-06
2.49926772474e-05
1.85105800686e-05
1.60150550694e-05
1.54435916285e-05
1.53335640117e-05
1.51095136137e-05
1.47917245532e-05
1.44551558576e-05
1.4131857659e-05
1.38195276097e-05
1.3526543003e-05
1.32437222594e-05
1.29781405598e-05
1.27208370437e-05
1.24745098974e-05
1.22432709443e-05
1.20176631396e-05
1.18055855391e-05
1.15971707988e-05
1.13970907541e-05
1.1208761777e-05
1.10224372641e-05
1.08430237341e-05
1.06697493618e-05
1.05064765907e-05
1.03445768185e-05
1.01881316819e-05
1.00414270882e-05
9.89532664574e-06
9.75431872402e-06
9.61823461643e-06
9.48768468153e-06
9.36694262265e-06
9.24686542093e-06
9.13231262229e-06
9.02311117853e-06
8.92484534705e-06
8.82757080408e-06
8.73618603559e-06
8.65114332479e-06
8.57261895749e-06
8.50065174685e-06
8.43538148837e-06
8.38148287983e-06
8.32974407042e-06
8.2848184672e-06
8.2469170011e-06
8.21588248009e-06
8.1917162136e-06
8.1744102566e-06
8.16377462028e-06
7.21720705342e-185
7.21720705342e-185
7.21720705343e-185
7.21720705343e-185
7.21720705343e-185
7.21720705343e-185
7.21720705343e-185
7.21720705343e-185
7.21720705343e-185
7.21720705345e-185
7.21720705431e-185
7.21720710125e-185
7.21720964629e-185
7.2173434939e-185
7.22440528905e-185
7.36370030142e-185
5.58225408948e-71
3.90478386112e-15
1.48712496575e-05
2.20495027053e-05
1.77503304247e-05
1.63696398438e-05
1.61826310727e-05
1.60519124872e-05
1.57459482574e-05
1.5372968285e-05
1.49970610125e-05
1.4637095838e-05
1.42996250999e-05
1.39794353218e-05
1.3670990093e-05
1.33773352291e-05
1.31020146577e-05
1.28347817072e-05
1.25841450122e-05
1.23399180294e-05
1.21106551549e-05
1.18858053388e-05
1.16702868269e-05
1.14673882179e-05
1.12677631381e-05
1.10755464546e-05
1.08947542645e-05
1.0715618188e-05
1.05430794233e-05
1.03766023754e-05
1.02204321536e-05
1.00655825272e-05
9.91639386244e-06
9.77775618032e-06
9.63989290509e-06
9.50781231875e-06
9.3812326112e-06
9.26095607826e-06
9.15164231869e-06
9.04357331176e-06
8.94183463777e-06
8.84662354422e-06
8.75807837332e-06
8.68105422952e-06
8.60603015218e-06
8.5379549161e-06
8.47702409262e-06
8.42312782139e-06
8.37647638175e-06
8.3369202752e-06
8.30456938946e-06
8.27933019969e-06
8.26112101363e-06
8.24978645181e-06
7.21720705331e-185
7.21720705331e-185
7.21720705331e-185
7.21720705332e-185
7.21720705332e-185
7.21720705332e-185
7.21720705332e-185
7.21720705332e-185
7.21720705332e-185
7.21720705342e-185
7.21720705852e-185
7.21720733247e-185
7.21722200156e-185
7.21798014411e-185
7.25672080538e-185
7.73835515589e-185
2.43992619704e-28
3.16010383267e-07
2.78435675155e-05
2.01904652525e-05
1.75625516841e-05
1.70125638992e-05
1.69683627226e-05
1.6746723478e-05
1.63598362838e-05
1.59362209653e-05
1.55281400031e-05
1.51358349532e-05
1.47690534217e-05
1.44172590822e-05
1.40876853004e-05
1.37702484075e-05
1.34732232117e-05
1.31854007418e-05
1.29155524371e-05
1.26531387913e-05
1.24068123435e-05
1.21664410852e-05
1.19354733073e-05
1.17188103042e-05
1.15060010716e-05
1.13059611192e-05
1.1108614747e-05
1.09183134204e-05
1.07354331034e-05
1.05641416256e-05
1.03943659953e-05
1.02311037422e-05
1.00787416471e-05
9.92784715628e-06
9.78318812774e-06
9.64479291785e-06
9.51767924357e-06
9.3915806769e-06
9.27234094959e-06
9.15974262806e-06
9.05388990489e-06
8.95999686337e-06
8.86783658346e-06
8.78280259204e-06
8.70498727112e-06
8.63443693725e-06
8.5711784159e-06
8.51539079773e-06