/*--------------------------------*- C++ -*----------------------------------*\
| =========                 |                                                 |
| \\      /  F ield         | foam-extend: Open Source CFD                    |
|  \\    /   O peration     | Version:     4.1                                |
|   \\  /    A nd           | Web:         http://www.foam-extend.org         |
|    \\/     M anipulation  |                                                 |
\*---------------------------------------------------------------------------*/
FoamFile
{
    version     2.0;
    format      ascii;
    class       volScalarField;
    location    "0.0008";
    object      NO;
}
// * * * * * * * * * * * * * * * * * * * * * * * * * * * * * * * * * * * * * //

dimensions      [0 0 0 0 0 0 0];

internalField   nonuniform List<scalar> 
8400
(
2.19526275777e-21
2.19526275777e-21
2.19526275778e-21
2.19526275778e-21
2.19526275779e-21
2.19526275779e-21
2.1952627578e-21
2.1952627578e-21
2.19526275781e-21
2.19526275781e-21
2.19526275781e-21
2.19526275782e-21
2.19526275782e-21
2.19526275783e-21
2.19526275783e-21
2.19526275783e-21
2.19526275785e-21
2.19526275841e-21
2.19526279031e-21
2.19526460293e-21
2.19536340651e-21
2.20076386666e-21
2.26543154179e-21
0.00889986139204
0.0022192904342
1.2688493149e-05
2.40788465442e-06
1.08363822893e-06
7.38491535178e-07
6.32325966667e-07
5.97082736279e-07
5.83923493445e-07
5.78384024339e-07
5.74675591432e-07
5.71597785474e-07
5.68822965188e-07
5.66267861224e-07
5.63845984252e-07
5.61508174816e-07
5.59222694568e-07
5.56957994213e-07
5.54700689612e-07
5.52427585819e-07
5.50103428308e-07
5.47705436136e-07
5.45621996103e-07
5.43046320846e-07
5.40382076779e-07
5.37596239432e-07
5.34684750769e-07
5.31657891096e-07
5.28527074343e-07
5.25283424519e-07
5.21937870268e-07
5.1856063075e-07
5.15123455032e-07
5.11654112496e-07
5.08212852385e-07
5.04811524685e-07
5.01485921775e-07
4.98320544398e-07
4.95327351327e-07
4.92535679983e-07
4.89993601901e-07
4.87756449773e-07
4.85833576372e-07
4.84256368781e-07
4.83049387202e-07
4.82228917917e-07
4.81201715335e-07
2.19526275627e-21
2.19526275627e-21
2.19526275627e-21
2.19526275627e-21
2.19526275627e-21
2.19526275628e-21
2.19526275628e-21
2.19526275628e-21
2.19526275628e-21
2.19526275628e-21
2.19526275629e-21
2.19526275629e-21
2.19526275629e-21
2.19526275629e-21
2.19526275629e-21
2.19526275629e-21
2.19526275635e-21
2.19526275928e-21
2.19526292817e-21
2.19527231877e-21
2.1958012062e-21
2.20780820082e-21
1.0217534799e-08
0.0269237638462
0.000941731251115
5.33833435968e-06
1.61367120614e-06
8.62964024904e-07
6.54752512651e-07
5.9011354391e-07
5.69492010588e-07
5.63118445682e-07
5.6003110048e-07
5.58100823167e-07
5.56301314202e-07
5.54505028008e-07
5.52705500346e-07
5.5085519577e-07
5.48948855849e-07
5.4656889716e-07
5.4454658478e-07
5.42436318591e-07
5.40229472973e-07
5.37916317104e-07
5.35509002196e-07
5.32984093934e-07
5.30330763296e-07
5.27552420669e-07
5.24684129087e-07
5.21683433839e-07
5.18555874508e-07
5.15340024089e-07
5.12023118526e-07
5.08618513085e-07
5.05202916221e-07
5.01750438923e-07
4.98288305421e-07
4.94879697646e-07
4.91528196404e-07
4.88277502356e-07
4.85209947394e-07
4.82314107588e-07
4.79628156612e-07
4.77204951197e-07
4.75068208028e-07
4.73239680479e-07
4.71745105085e-07
4.70604049021e-07
4.69829529518e-07
4.68962141698e-07
2.19526275554e-21
2.19526275554e-21
2.19526275555e-21
2.19526275555e-21
2.19526275555e-21
2.19526275555e-21
2.19526275555e-21
2.19526275555e-21
2.19526275555e-21
2.19526275555e-21
2.19526275555e-21
2.19526275556e-21
2.19526275556e-21
2.19526275556e-21
2.19526275556e-21
2.19526275557e-21
2.19526275586e-21
2.19526277257e-21
2.19526373493e-21
2.19531682792e-21
2.19828845102e-21
2.23867106179e-21
0.000384225222383
0.00313757903386
2.5998364365e-05
2.88893545814e-06
1.15507539231e-06
7.3089652748e-07
6.06034227774e-07
5.67796519437e-07
5.56468794878e-07
5.53015255634e-07
5.51641078653e-07
5.50552375257e-07
5.49436862288e-07
5.48235016675e-07
5.46522434076e-07
5.45126034063e-07
5.4361191171e-07
5.4197603043e-07
5.4021204982e-07
5.38317613586e-07
5.36306224327e-07
5.34152269565e-07
5.31850867311e-07
5.29399815063e-07
5.26844130084e-07
5.2413799442e-07
5.21284328942e-07
5.1830603659e-07
5.15210820864e-07
5.11997934141e-07
5.08709987466e-07
5.0537531228e-07
5.01985360057e-07
4.98583454784e-07
4.95201167086e-07
4.91854165513e-07
4.88608418699e-07
4.85493567893e-07
4.82520515875e-07
4.79733041536e-07
4.77175988138e-07
4.74862738331e-07
4.72823164917e-07
4.71083197078e-07
4.696842594e-07
4.686210052e-07
4.67899253262e-07
4.67137546213e-07
2.1952627551e-21
2.1952627551e-21
2.1952627551e-21
2.1952627551e-21
2.1952627551e-21
2.1952627551e-21
2.19526275511e-21
2.19526275511e-21
2.19526275511e-21
2.19526275511e-21
2.19526275511e-21
2.19526275511e-21
2.19526275511e-21
2.19526275511e-21
2.19526275511e-21
2.19526275513e-21
2.1952627563e-21
2.19526282425e-21
2.1952666944e-21
2.1954845287e-21
2.2033641099e-21
2.7360055466e-09
0.0219342875402
0.00157295056839
7.85076677086e-06
1.91840774777e-06
9.33867737421e-07
6.69209935541e-07
5.88740857509e-07
5.64417659643e-07
5.57155052242e-07
5.54467906255e-07
5.53095771242e-07
5.51890370726e-07
5.50652298634e-07
5.49344642422e-07
5.47543365218e-07
5.46053017064e-07
5.44469941132e-07
5.42767054222e-07
5.40936304647e-07
5.38969801412e-07
5.36874997199e-07
5.34641654846e-07
5.32256234863e-07
5.29716156641e-07
5.27055442476e-07
5.24259729996e-07
5.21318059993e-07
5.18247296104e-07
5.15073636177e-07
5.11791641987e-07
5.08432556734e-07
5.05052427113e-07
5.01629363242e-07
4.98201557871e-07
4.94815506267e-07
4.91480863275e-07
4.88247987662e-07
4.85171669391e-07
4.82244941185e-07
4.79502353802e-07
4.76999286871e-07
4.74744553061e-07
4.72763339613e-07
4.71077848524e-07
4.69704819999e-07
4.68672777089e-07
4.67972956041e-07
4.67270312753e-07
2.1952627548e-21
2.1952627548e-21
2.1952627548e-21
2.1952627548e-21
2.1952627548e-21
2.1952627548e-21
2.1952627548e-21
2.19526275481e-21
2.19526275481e-21
2.19526275481e-21
2.19526275481e-21
2.19526275481e-21
2.19526275481e-21
2.19526275481e-21
2.19526275481e-21
2.19526275489e-21
2.19526275949e-21
2.19526302645e-21
2.19527794708e-21
2.19612663994e-21
2.21245451298e-21
1.78588963335e-08
0.0181720406638
0.000529669333266
4.40552124459e-06
1.45958640043e-06
8.23931056243e-07
6.44852424379e-07
5.89332726955e-07
5.72070443888e-07
5.66609830885e-07
5.63762578168e-07
5.61894001268e-07
5.6012538137e-07
5.58345775005e-07
5.56524570785e-07
5.54662555711e-07
5.52754405953e-07
5.50354380296e-07
5.48259829087e-07
5.4606197283e-07
5.43766765066e-07
5.41342969934e-07
5.38783752455e-07
5.36097717913e-07
5.33283373265e-07
5.30326397669e-07
5.27234752786e-07
5.24059847007e-07
5.20760962693e-07
5.17352752898e-07
5.13885651994e-07
5.10346853767e-07
5.0676688093e-07
5.03213452584e-07
4.99663916363e-07
4.96161486569e-07
4.9275499322e-07
4.89447524104e-07
4.86654296172e-07
4.83693381634e-07
4.80930476304e-07
4.78394290242e-07
4.76130635777e-07
4.74162230903e-07
4.72490869885e-07
4.71129991442e-07
4.70090141579e-07
4.69379725484e-07
4.68688661205e-07
2.19526275458e-21
2.19526275459e-21
2.19526275459e-21
2.19526275459e-21
2.19526275459e-21
2.19526275459e-21
2.19526275459e-21
2.19526275459e-21
2.19526275459e-21
2.19526275459e-21
2.19526275459e-21
2.19526275459e-21
2.19526275459e-21
2.19526275459e-21
2.1952627546e-21
2.19526275487e-21
2.19526277057e-21
2.19526367608e-21
2.1953137524e-21
2.19812321219e-21
2.2369918238e-21
0.000269487235948
0.00325486351042
2.90086399828e-05
3.01046617893e-06
1.20849326917e-06
7.69530215141e-07
6.40196362458e-07
5.99560916068e-07
5.86553081016e-07
5.81546464816e-07
5.78630979503e-07
5.76062702061e-07
5.73571303621e-07
5.71116092624e-07
5.68634191062e-07
5.66110460345e-07
5.63552341775e-07
5.60934637841e-07
5.58237135014e-07
5.55455180717e-07
5.52615121887e-07
5.49662655144e-07
5.46598717069e-07
5.43050132202e-07
5.39780925122e-07
5.36780923366e-07
5.33285905186e-07
5.29691315045e-07
5.25990840981e-07
5.22255840933e-07
5.18457508246e-07
5.14615000577e-07
5.10777076571e-07
5.06935625848e-07
5.03150573893e-07
4.99458308455e-07
4.95859163395e-07
4.92407026623e-07
4.89119711424e-07
4.86015006748e-07
4.8314691732e-07
4.8054392305e-07
4.78209947136e-07
4.76169520668e-07
4.74441594919e-07
4.73053539036e-07
4.71994780759e-07
4.71271696885e-07
4.70597629118e-07
2.19526275442e-21
2.19526275442e-21
2.19526275442e-21
2.19526275442e-21
2.19526275442e-21
2.19526275443e-21
2.19526275443e-21
2.19526275443e-21
2.19526275443e-21
2.19526275443e-21
2.19526275443e-21
2.19526275443e-21
2.19526275443e-21
2.19526275443e-21
2.19526275444e-21
2.19526275508e-21
2.19526279141e-21
2.19526485983e-21
2.19537784998e-21
2.20152510676e-21
2.27436196031e-21
0.013140593307
0.00202990736994
1.10492445737e-05
2.29021225045e-06
1.06705048717e-06
7.47308819944e-07
6.50126794572e-07
6.18902135633e-07
6.07993899267e-07
6.02565984607e-07
5.98749740377e-07
5.95199674968e-07
5.91783434292e-07
5.88401371911e-07
5.85021243741e-07
5.81663407995e-07
5.78274651276e-07
5.74847061761e-07
5.71422027327e-07
5.67927827302e-07
5.64358778637e-07
5.60732250088e-07
5.57010170712e-07
5.53209077643e-07
5.49349765867e-07
5.45387982902e-07
5.4136136483e-07
5.37263033895e-07
5.33085602482e-07
5.28880029697e-07
5.24628148764e-07
5.20392127006e-07
5.16184803072e-07
5.12004065709e-07
5.07912998825e-07
5.03907916065e-07
5.00054314689e-07
4.96379060305e-07
4.92881664169e-07
4.89608901222e-07
4.86575821116e-07
4.84203261706e-07
4.81734904195e-07
4.79603946905e-07
4.77801006846e-07
4.76335268964e-07
4.75214901749e-07
4.74447449547e-07
4.73752371682e-07
2.1952627543e-21
2.1952627543e-21
2.1952627543e-21
2.1952627543e-21
2.1952627543e-21
2.1952627543e-21
2.1952627543e-21
2.1952627543e-21
2.1952627543e-21
2.1952627543e-21
2.1952627543e-21
2.1952627543e-21
2.1952627543e-21
2.1952627543e-21
2.19526275434e-21
2.19526275636e-21
2.19526287303e-21
2.19526942216e-21
2.19563804369e-21
2.20568354433e-21
6.35485902543e-09
0.026367007873
0.00124150656706
6.56877656183e-06
1.86521629009e-06
9.87799413188e-07
7.45860707523e-07
6.70283564597e-07
6.44723536523e-07
6.34845621633e-07
6.28546729104e-07
6.23577169828e-07
6.1887447804e-07
6.14294675618e-07
6.09810905212e-07
6.05364596506e-07
6.00978448949e-07
5.96593713207e-07
5.92244491696e-07
5.87895843474e-07
5.83513144142e-07
5.79113066962e-07
5.7464966757e-07
5.70171060174e-07
5.65638707199e-07
5.61043081451e-07
5.56401081403e-07
5.51685136428e-07
5.46981518182e-07
5.42223240278e-07
5.37470820587e-07
5.3271409731e-07
5.2837301201e-07
5.23689462548e-07
5.19070478714e-07
5.14600429951e-07
5.10242843602e-07
5.0605848351e-07
5.02064439378e-07
4.98280257256e-07
4.94786301675e-07
4.91551325474e-07
4.88604620632e-07
4.86002042147e-07
4.83737271588e-07
4.81820864021e-07
4.8026440903e-07
4.79076677504e-07
4.78264136083e-07
4.77565047915e-07
2.1952627542e-21
2.1952627542e-21
2.1952627542e-21
2.1952627542e-21
2.1952627542e-21
2.1952627542e-21
2.1952627542e-21
2.1952627542e-21
2.1952627542e-21
2.1952627542e-21
2.1952627542e-21
2.1952627542e-21
2.1952627542e-21
2.1952627542e-21
2.1952627543e-21
2.19526275971e-21
2.19526307311e-21
2.1952805743e-21
2.1962739985e-21
2.21462575506e-21
2.09383462752e-08
0.0136739014551
0.000477923382248
4.5473758115e-06
1.58837861731e-06
9.43027900622e-07
7.58556119465e-07
6.98433354286e-07
6.76811619553e-07
6.66683651973e-07
6.59636016089e-07
6.5282087487e-07
6.46731931959e-07
6.40828262602e-07
6.35046555283e-07
6.29365602954e-07
6.23785541822e-07
6.18290498588e-07
6.12846178887e-07
6.07445332087e-07
6.02052435278e-07
5.96665738333e-07
5.91691320602e-07
5.86316873728e-07
5.80903601419e-07
5.75487319629e-07
5.7002548794e-07
5.6460914463e-07
5.59154487063e-07
5.53741891594e-07
5.48321978698e-07
5.42960492707e-07
5.37639383815e-07
5.32455618171e-07
5.27364918359e-07
5.22420345117e-07
5.17628545496e-07
5.13056089237e-07
5.08727342198e-07
5.04635085837e-07
5.01229603866e-07
4.97735474245e-07
4.94563041138e-07
4.91770508959e-07
4.89340271823e-07
4.8728462554e-07
4.85615297177e-07
4.84340647327e-07
4.83474946795e-07
4.82753213153e-07
2.19526275412e-21
2.19526275412e-21
2.19526275412e-21
2.19526275412e-21
2.19526275412e-21
2.19526275412e-21
2.19526275412e-21
2.19526275412e-21
2.19526275412e-21
2.19526275412e-21
2.19526275412e-21
2.19526275412e-21
2.19526275412e-21
2.19526275413e-21
2.19526275439e-21
2.19526276939e-21
2.19526362937e-21
2.19531095269e-21
2.197947322e-21
2.23523704305e-21
0.000194224533114
0.00348209274083
3.84228648038e-05
3.40036730211e-06
1.40901463925e-06
9.24866632854e-07
7.80690443498e-07
7.32526024536e-07
7.13233015052e-07
7.02872285864e-07
6.94432525403e-07
6.86553744014e-07
6.78961605263e-07
6.71569686531e-07
6.6438954791e-07
6.57333502675e-07
6.50409564513e-07
6.43618376944e-07
6.36928689993e-07
6.30323483127e-07
6.23752597912e-07
6.17297848438e-07
6.10854738184e-07
6.0446912659e-07
5.98087897451e-07
5.91727953922e-07
5.85407368822e-07
5.79126585533e-07
5.72879562926e-07
5.6665623233e-07
5.60537817784e-07
5.54888201432e-07
5.4896908801e-07
5.43156923749e-07
5.37531532761e-07
5.32055815367e-07
5.26805294697e-07
5.21768903809e-07
5.1705201895e-07
5.12604562732e-07
5.08474213302e-07
5.04682847094e-07
5.01249323554e-07
4.98234538371e-07
4.95623563376e-07
4.93412279117e-07
4.91612044503e-07
4.90238938021e-07
4.89310115159e-07
4.88571474777e-07
2.19526275405e-21
2.19526275405e-21
2.19526275405e-21
2.19526275405e-21
2.19526275405e-21
2.19526275406e-21
2.19526275406e-21
2.19526275406e-21
2.19526275406e-21
2.19526275406e-21
2.19526275406e-21
2.19526275406e-21
2.19526275406e-21
2.19526275407e-21
2.19526275467e-21
2.19526278859e-21
2.1952647111e-21
2.19536935282e-21
2.20104133025e-21
2.26848036024e-21
0.0091860370983
0.00224270126458
1.39407401521e-05
2.71047095478e-06
1.29652359707e-06
9.29216372793e-07
8.15386113632e-07
7.74374857029e-07
7.56057954765e-07
7.44236488968e-07
7.33969725568e-07
7.24256826391e-07
7.14862936887e-07
7.05720514906e-07
6.9689483333e-07
6.8826430452e-07
6.79809615865e-07
6.71592482028e-07
6.6352492439e-07
6.55578410409e-07
6.47760346598e-07
6.40044704619e-07
6.32432739773e-07
6.24897325867e-07
6.17896166927e-07
6.10499547582e-07
6.03192551139e-07
5.95965142091e-07
5.8882638396e-07
5.81766220127e-07
5.74849930347e-07
5.68064520672e-07
5.61421291116e-07
5.54960215133e-07
5.48674331544e-07
5.42658151888e-07
5.37303023983e-07
5.31802327425e-07
5.26595574163e-07
5.21768587411e-07
5.17274050704e-07
5.13182591748e-07
5.09488883763e-07
5.06206609552e-07
5.03375813177e-07
5.00989024868e-07
4.99051549228e-07
4.97572727067e-07
4.96558516636e-07
4.95762816922e-07
2.195262754e-21
2.195262754e-21
2.195262754e-21
2.195262754e-21
2.195262754e-21
2.195262754e-21
2.195262754e-21
2.195262754e-21
2.195262754e-21
2.195262754e-21
2.195262754e-21
2.195262754e-21
2.195262754e-21
2.19526275403e-21
2.19526275579e-21
2.19526285635e-21
2.19526846887e-21
2.19558047972e-21
2.20500191872e-21
4.75688383923e-09
0.0248174892473
0.00144170238691
8.01291831097e-06
2.24612087961e-06
1.23229106397e-06
9.4973553309e-07
8.59353784713e-07
8.23931066203e-07
8.04852666879e-07
7.91044408441e-07
7.78468209276e-07
7.66475173262e-07
7.54972076315e-07
7.43844393908e-07
7.33101263021e-07
7.22683194447e-07
7.12537484865e-07
7.02624692372e-07
6.93476580486e-07
6.84044211083e-07
6.74790598556e-07
6.65698130631e-07
6.56782198654e-07
6.47996092281e-07
6.39327351589e-07
6.30829493663e-07
6.22451817241e-07
6.1420841386e-07
6.0609365928e-07
5.98580405932e-07
5.90754195532e-07
5.83151564472e-07
5.75740119477e-07
5.68569632173e-07
5.61636793952e-07
5.54954172417e-07
5.48626766571e-07
5.42602657719e-07
5.3695690126e-07
5.32092880107e-07
5.27215094915e-07
5.22743426286e-07
5.18740609914e-07
5.15205579374e-07
5.12134158174e-07
5.09552367619e-07
5.07476721441e-07
5.05893907824e-07
5.04807299449e-07
5.03986543261e-07
2.19526275395e-21
2.19526275395e-21
2.19526275395e-21
2.19526275395e-21
2.19526275395e-21
2.19526275395e-21
2.19526275395e-21
2.19526275395e-21
2.19526275395e-21
2.19526275395e-21
2.19526275396e-21
2.19526275396e-21
2.19526275396e-21
2.19526275404e-21
2.19526275901e-21
2.19526304191e-21
2.19527859676e-21
2.19614433629e-21
2.21284732241e-21
1.71883063965e-08
0.020433071555
0.00067938896956
5.40501800879e-06
1.9379207169e-06
1.20015564688e-06
9.85289673922e-07
9.12113123127e-07
8.79566230142e-07
8.59500035966e-07
8.43091345322e-07
8.27837835069e-07
8.13306105964e-07
7.9936328367e-07
7.86500175135e-07
7.73566016366e-07
7.6104401022e-07
7.4895410784e-07
7.37240580769e-07
7.25822413081e-07
7.14719117711e-07
7.03878534074e-07
6.93265189135e-07
6.82910432728e-07
6.73250613466e-07
6.63308300497e-07
6.53549074679e-07
6.43955712462e-07
6.34609522379e-07
6.25457382611e-07
6.16495459417e-07
6.07735221978e-07
5.99724273799e-07
5.91472888959e-07
5.83488794862e-07
5.75855014501e-07
5.68537439882e-07
5.6158219868e-07
5.54997417684e-07
5.48796105437e-07
5.43066215231e-07
5.37764280298e-07
5.33383320241e-07
5.29047644036e-07
5.25206348692e-07
5.2190889893e-07
5.19128079606e-07
5.16874881195e-07
5.15154881688e-07
5.13974614169e-07
5.13108673742e-07
2.19526275391e-21
2.19526275391e-21
2.19526275391e-21
2.19526275391e-21
2.19526275391e-21
2.19526275391e-21
2.19526275391e-21
2.19526275392e-21
2.19526275392e-21
2.19526275392e-21
2.19526275392e-21
2.19526275392e-21
2.19526275392e-21
2.1952627542e-21
2.19526276984e-21
2.19526365579e-21
2.19531188578e-21
2.19796172636e-21
2.23560259515e-21
0.000168882640664
0.00363716642478
5.28104008575e-05
3.96149285694e-06
1.73568571616e-06
1.19641358538e-06
1.03336189057e-06
9.71935363931e-07
9.41442390602e-07
9.1923411315e-07
8.99964756916e-07
8.81846603844e-07
8.65046942561e-07
8.48447374572e-07
8.32474813734e-07
8.17142413178e-07
8.02344410268e-07
7.88096649446e-07
7.74329666403e-07
7.61509175278e-07
7.4853527595e-07
7.35930576527e-07
7.23671130326e-07
7.11702407393e-07
7.00059186757e-07
6.88706648363e-07
6.78097806794e-07
6.67266463054e-07
6.56683634123e-07
6.46349661546e-07
6.36327470299e-07
6.26606905532e-07
6.1715899482e-07
6.08015646948e-07
5.99705949787e-07
5.9130349632e-07
5.83270379926e-07
5.75627588607e-07
5.68463556221e-07
5.61736580109e-07
5.55508351129e-07
5.49762747538e-07
5.44542004114e-07
5.39838088258e-07
5.36189896948e-07
5.32611311375e-07
5.29599864466e-07
5.27176182308e-07
5.25327357501e-07
5.24051058182e-07
5.23132826612e-07
2.19526275388e-21
2.19526275388e-21
2.19526275388e-21
2.19526275388e-21
2.19526275388e-21
2.19526275388e-21
2.19526275388e-21
2.19526275388e-21
2.19526275388e-21
2.19526275388e-21
2.19526275388e-21
2.19526275388e-21
2.1952627539e-21
2.19526275462e-21
2.19526279511e-21
2.19526504711e-21
2.19538544246e-21
2.20175027466e-21
2.27642827551e-21
0.0115433118481
0.00219411657671
1.50225186072e-05
3.1121850667e-06
1.61526671989e-06
1.22053173624e-06
1.09474652043e-06
1.04129435588e-06
1.010296183e-06
9.85472144952e-07
9.62724938073e-07
9.41184884973e-07
9.2069384478e-07
9.01044024413e-07
8.82267221552e-07
8.64802115609e-07
8.47518776047e-07
8.30875176176e-07
8.14810988101e-07
7.99339900956e-07
7.84362068055e-07
7.69841029305e-07
7.562949047e-07
7.42639739465e-07
7.29364492616e-07
7.16429273529e-07
7.0388338776e-07
6.91679215395e-07
6.80309790259e-07
6.68786242527e-07
6.57623230729e-07
6.46798535061e-07
6.36330142226e-07
6.26270899847e-07
6.16632680509e-07
6.07895085e-07
5.99106772163e-07
5.90772842305e-07
5.82978240915e-07
5.75681839932e-07
5.68927655157e-07
5.6273377733e-07
5.5710700867e-07
5.52057269702e-07
5.48060560851e-07
5.44198834328e-07
5.40973409039e-07
5.38366726227e-07
5.36374730551e-07
5.34997203225e-07
5.34028965016e-07
2.19526275385e-21
2.19526275385e-21
2.19526275385e-21
2.19526275385e-21
2.19526275385e-21
2.19526275385e-21
2.19526275385e-21
2.19526275385e-21
2.19526275385e-21
2.19526275385e-21
2.19526275385e-21
2.19526275385e-21
2.1952627539e-21
2.19526275663e-21
2.19526290996e-21
2.19527129722e-21
2.1957307609e-21
2.20729791272e-21
7.69419472663e-09
0.0268434351817
0.00128801544634
8.12914536917e-06
2.5788884637e-06
1.55625936925e-06
1.26902139714e-06
1.1690586982e-06
1.1201094216e-06
1.08627057032e-06
1.05731899376e-06
1.03041549999e-06
1.00497661239e-06
9.80803354261e-07
9.58429052151e-07
9.36416667334e-07
9.15468119079e-07
8.95369036138e-07
8.76086312837e-07
8.58142605354e-07
8.40319789173e-07
8.23106976959e-07
8.06536449727e-07
7.90482603332e-07
7.75556759023e-07
7.60522194252e-07
7.45940327051e-07
7.31844756371e-07
7.18166788552e-07
7.04893966705e-07
6.92600339016e-07
6.80206186245e-07
6.68254741202e-07
6.56724429816e-07
6.45687615769e-07
6.3512638577e-07
6.25539628563e-07
6.15969181812e-07
6.06954943401e-07
5.98477960956e-07
5.90562820818e-07
5.83269928936e-07
5.76590538968e-07
5.70525494453e-07
5.65107803061e-07
5.6081212921e-07
5.56667439388e-07
5.53200815879e-07
5.50386771827e-07
5.48230351255e-07
5.46733034598e-07
5.45699459459e-07
2.19526275382e-21
2.19526275382e-21
2.19526275382e-21
2.19526275382e-21
2.19526275382e-21
2.19526275383e-21
2.19526275383e-21
2.19526275383e-21
2.19526275383e-21
2.19526275383e-21
2.19526275383e-21
2.19526275383e-21
2.19526275401e-21
2.19526276407e-21
2.19526332661e-21
2.19529362146e-21
2.19693854237e-21
2.22373910329e-21
7.05178763697e-06
0.00618634197155
0.000336523456284
5.33850042045e-06
2.24594985457e-06
1.54536344596e-06
1.33703472072e-06
1.25421875543e-06
1.20584934188e-06
1.16858884477e-06
1.13492237865e-06
1.10334654907e-06
1.07424467805e-06
1.04601791468e-06
1.01923376277e-06
9.9373767292e-07
9.70107412156e-07
9.46909694504e-07
9.24752887749e-07
9.03517045789e-07
8.83757235122e-07
8.64196379449e-07
8.45374822065e-07
8.27191054592e-07
8.0971776292e-07
7.93411236778e-07
7.77061115117e-07
7.61308297216e-07
7.46066374316e-07
7.31343718654e-07
7.17727390381e-07
7.04030738983e-07
6.90886612418e-07
6.78252959808e-07
6.66149612609e-07
6.54619830001e-07
6.44191634801e-07
6.33825024611e-07
6.24038316345e-07
6.1487260727e-07
6.06349467735e-07
5.98508625078e-07
5.91319088261e-07
5.84805499539e-07
5.79482782224e-07
5.74357257894e-07
5.69923041893e-07
5.66211300591e-07
5.63196541811e-07
5.60882945501e-07
5.59268833523e-07
5.58180750149e-07
2.1952627538e-21
2.1952627538e-21
2.1952627538e-21
2.1952627538e-21
2.1952627538e-21
2.1952627538e-21
2.1952627538e-21
2.1952627538e-21
2.1952627538e-21
2.1952627538e-21
2.1952627538e-21
2.19526275381e-21
2.19526275444e-21
2.19526278901e-21
2.19526469341e-21
2.19536571794e-21
2.20068432815e-21
2.26496336074e-21
0.00519543218034
0.00257400764707
2.32895512411e-05
3.92191431447e-06
2.05621853783e-06
1.57546017704e-06
1.42091287368e-06
1.34886824762e-06
1.29866223091e-06
1.25652555943e-06
1.21833990291e-06
1.18175017189e-06
1.14723780209e-06
1.11463149866e-06
1.08443173278e-06
1.0550880384e-06
1.02728075545e-06
1.00143217118e-06
9.76107997457e-07
9.51997598241e-07
9.28850245342e-07
9.07391913189e-07
8.86147490432e-07
8.65734626287e-07
8.46121761364e-07
8.27857105847e-07
8.0964055363e-07
7.9214371196e-07
7.75285440994e-07
7.59016854903e-07
7.43989694479e-07
7.28975981636e-07
7.1454277099e-07
7.00761087066e-07
6.87609345195e-07
6.75652386913e-07
6.63743677408e-07
6.52509049308e-07
6.41963607403e-07
6.32100699467e-07
6.22960689001e-07
6.14529121241e-07
6.07317720992e-07
6.00353870827e-07
5.94115677678e-07
5.88650358543e-07
5.83915361999e-07
5.79961156356e-07
5.76752801209e-07
5.74285851803e-07
5.72559473119e-07
5.71401789354e-07
2.19526275378e-21
2.19526275378e-21
2.19526275378e-21
2.19526275378e-21
2.19526275378e-21
2.19526275378e-21
2.19526275378e-21
2.19526275378e-21
2.19526275378e-21
2.19526275378e-21
2.19526275378e-21
2.19526275383e-21
2.19526275656e-21
2.19526290762e-21
2.19527106469e-21
2.19571057058e-21
2.20717433149e-21
6.82313931251e-09
0.0262471991933
0.00143696962738
9.90098160671e-06
3.14504958673e-06
1.97064505361e-06
1.64444004031e-06
1.52383206331e-06
1.45367856905e-06
1.39988470295e-06
1.35145147079e-06
1.30639529983e-06
1.26418398452e-06
1.22521509359e-06
1.18777586287e-06
1.15237859995e-06
1.11968619281e-06
1.08798819411e-06
1.05788084677e-06
1.02993938838e-06
1.00269321481e-06
9.76644972888e-07
9.51819955551e-07
9.28691334133e-07
9.05875657026e-07
8.84040877795e-07
8.63692276552e-07
8.43558038962e-07
8.24210424053e-07
8.05612601586e-07
7.87777115178e-07
7.71235769771e-07
7.54828218407e-07
7.39151885783e-07
7.24185183871e-07
7.09915179159e-07
6.96948055021e-07
6.8411202442e-07
6.71980442636e-07
6.60656254865e-07
6.50093302133e-07
6.40291020213e-07
6.31824910497e-07
6.23585745378e-07
6.16129227564e-07
6.0945647593e-07
6.03624998854e-07
5.98594001392e-07
5.94361340545e-07
5.9094661417e-07
5.88315996296e-07
5.86466695911e-07
5.85242152957e-07
2.19526275376e-21
2.19526275376e-21
2.19526275376e-21
2.19526275376e-21
2.19526275376e-21
2.19526275376e-21
2.19526275376e-21
2.19526275376e-21
2.19526275376e-21
2.19526275376e-21
2.19526275377e-21
2.19526275399e-21
2.19526276641e-21
2.19526344694e-21
2.19529942913e-21
2.19721281249e-21
2.22732567391e-21
1.01088643606e-05
0.00555188708666
0.000354290394393
6.00084955721e-06
2.71086913904e-06
1.96617022007e-06
1.7407376574e-06
1.63912407139e-06
1.5672381526e-06
1.50675437517e-06
1.45119234577e-06
1.40025489641e-06
1.351804756e-06
1.30639057449e-06
1.26450235978e-06
1.22427404677e-06
1.18712165231e-06
1.15122746272e-06
1.11735087733e-06
1.08588313115e-06
1.05531182604e-06
1.02623263664e-06
9.98476122725e-07
9.727338286e-07
9.47437687829e-07
9.23215661893e-07
9.00774322566e-07
8.78519968226e-07
8.5729679334e-07
8.36951300002e-07
8.18106747809e-07
7.99379568e-07
7.81570413909e-07
7.64566575004e-07
7.48368483996e-07
7.33563589759e-07
7.18964492744e-07
7.0518036466e-07
6.92216904368e-07
6.80058350849e-07
6.69352253476e-07
6.58832817257e-07
6.49219290191e-07
6.40445553057e-07
6.32509829782e-07
6.25465547385e-07
6.19251568158e-07
6.13930184975e-07
6.09431187209e-07
6.0636793991e-07
6.03562662172e-07
6.01585617108e-07
6.00291548739e-07
2.19526275375e-21
2.19526275375e-21
2.19526275375e-21
2.19526275375e-21
2.19526275375e-21
2.19526275375e-21
2.19526275375e-21
2.19526275375e-21
2.19526275375e-21
2.19526275375e-21
2.19526275377e-21
2.19526275471e-21
2.19526280541e-21
2.19526552822e-21
2.19540648543e-21
2.20254844263e-21
1.76115626418e-10
0.0123237158617
0.00228725647723
2.09260960324e-05
4.32940440433e-06
2.49702838674e-06
2.02353976093e-06
1.85861514507e-06
1.76293714162e-06
1.68692898381e-06
1.61858950204e-06
1.5561605618e-06
1.49723969172e-06
1.44302410377e-06
1.39158036956e-06
1.34410102524e-06
1.29881855163e-06
1.25612582733e-06
1.21672280879e-06
1.17876927365e-06
1.14361435292e-06
1.10951373717e-06
1.07722672036e-06
1.04723948447e-06
1.01792189877e-06
9.90051591867e-07
9.63441188539e-07
9.38711794356e-07
9.14432652194e-07
8.91222261383e-07
8.69743401926e-07
8.48541553333e-07
8.28295434527e-07
8.08974983764e-07
7.90617528141e-07
7.73828929268e-07
7.57261221814e-07
7.41603119177e-07
7.26800166736e-07
7.13619015451e-07
7.00658240488e-07
6.88583161454e-07
6.77430153057e-07
6.67199776128e-07
6.57885672451e-07
6.49498854402e-07
6.42624202875e-07
6.36060465102e-07
6.3038037065e-07
6.25635458716e-07
6.21765054895e-07
6.18769640179e-07
6.16652766816e-07
6.15284363321e-07
2.19526275373e-21
2.19526275373e-21
2.19526275373e-21
2.19526275373e-21
2.19526275373e-21
2.19526275373e-21
2.19526275373e-21
2.19526275373e-21
2.19526275373e-21
2.19526275373e-21
2.19526275384e-21
2.19526275959e-21
2.19526307129e-21
2.1952794641e-21
2.19614434827e-21
2.21320432361e-21
1.47499138657e-08
0.0254086219353
0.00106552379868
8.95580998458e-06
3.50068755363e-06
2.43514781007e-06
2.13012113289e-06
1.99551647529e-06
1.89813134171e-06
1.81370211391e-06
1.73614561664e-06
1.66437068756e-06
1.59860438696e-06
1.53738055197e-06
1.47949566388e-06
1.42534970022e-06
1.37547023835e-06
1.32780820939e-06
1.28385676901e-06
1.2416410712e-06
1.20264416558e-06
1.16490032001e-06
1.12924035702e-06
1.09617760156e-06
1.06403004131e-06
1.03346982842e-06
1.00513205733e-06
9.77344429611e-07
9.50935724668e-07
9.25730684733e-07
9.02401752438e-07
8.79493486587e-07
8.5765083466e-07
8.37617470165e-07
8.17876163059e-07
7.99153487723e-07
7.81380082431e-07
7.64649841204e-07
7.49614724926e-07
7.34858182711e-07
7.21090606413e-07
7.08309740133e-07
6.96512754198e-07
6.86345211217e-07
6.76483490028e-07
6.67594767744e-07
6.59709751978e-07
6.52759969459e-07
6.46794157457e-07
6.41750552546e-07
6.37664614299e-07
6.3450523774e-07
6.32252550561e-07
6.3079000867e-07
2.19526275372e-21
2.19526275372e-21
2.19526275372e-21
2.19526275372e-21
2.19526275372e-21
2.19526275372e-21
2.19526275372e-21
2.19526275372e-21
2.19526275372e-21
2.19526275373e-21
2.19526275436e-21
2.19526278791e-21
2.19526458449e-21
2.19535743701e-21
2.20010214907e-21
2.25908968927e-21
0.00185538783408
0.0030287258349
5.37680786847e-05
5.64672242463e-06
3.09631670923e-06
2.4758555813e-06
2.26605342135e-06
2.14271976531e-06
2.0384397987e-06
1.94359067595e-06
1.85718433502e-06
1.77635986147e-06
1.70250779694e-06
1.63301888007e-06
1.56924495775e-06
1.50888080457e-06
1.45347571726e-06
1.40066701267e-06
1.35202583789e-06
1.30543381643e-06
1.2624277964e-06
1.22106149572e-06
1.18188494624e-06
1.14572678586e-06
1.1106535159e-06
1.07816025711e-06
1.04649571257e-06
1.016373717e-06
9.87761435963e-07
9.61351184196e-07
9.35426032074e-07
9.10805285893e-07
8.88110379585e-07
8.65858318404e-07
8.44767255511e-07
8.24785647255e-07
8.06644362374e-07
7.88806536889e-07
7.72104199719e-07
7.56475576768e-07
7.41908893125e-07
7.29122098328e-07
7.16638158319e-07
7.05211325567e-07
6.94841672477e-07
6.85502466323e-07
6.77173674835e-07
6.69889326785e-07
6.64256043584e-07
6.58956246154e-07
6.54632708191e-07
6.51268785633e-07
6.48861045605e-07
6.47314490106e-07
2.19526275371e-21
2.19526275371e-21
2.19526275371e-21
2.19526275371e-21
2.19526275371e-21
2.19526275371e-21
2.19526275371e-21
2.19526275371e-21
2.19526275371e-21
2.19526275379e-21
2.19526275805e-21
2.19526298632e-21
2.19527487995e-21
2.19589297232e-21
2.20995879845e-21
9.38301337981e-09
0.0271099167212
0.00142209461812
1.22713559148e-05
4.30918725488e-06
2.96773881885e-06
2.59346206695e-06
2.42758363928e-06
2.2991317555e-06