/*--------------------------------*- C++ -*----------------------------------*\
| =========                 |                                                 |
| \\      /  F ield         | foam-extend: Open Source CFD                    |
|  \\    /   O peration     | Version:     4.1                                |
|   \\  /    A nd           | Web:         http://www.foam-extend.org         |
|    \\/     M anipulation  |                                                 |
\*---------------------------------------------------------------------------*/
FoamFile
{
    version     2.0;
    format      ascii;
    class       volScalarField;
    location    "0.0008";
    object      NOPlus;
}
// * * * * * * * * * * * * * * * * * * * * * * * * * * * * * * * * * * * * * //

dimensions      [0 0 0 0 0 0 0];

internalField   nonuniform List<scalar> 
8400
(
1.21417155839e-66
1.2141715584e-66
1.2141715584e-66
1.2141715584e-66
1.21417155841e-66
1.21417155841e-66
1.21417155842e-66
1.21417155842e-66
1.21417155843e-66
1.21417155843e-66
1.21417155843e-66
1.21417155844e-66
1.21417155844e-66
1.21417155845e-66
1.21417155845e-66
1.21417155845e-66
1.21417155847e-66
1.21417155899e-66
1.21417158852e-66
1.21417326698e-66
1.2142647575e-66
1.2192654964e-66
1.27914671947e-66
2.32162205571e-11
0.000288859430294
4.64166902754e-05
1.59482619234e-05
9.1862213304e-06
6.97456334222e-06
6.22184273857e-06
5.96431649562e-06
5.87002369875e-06
5.83201646169e-06
5.80762377907e-06
5.78775530358e-06
5.76992417073e-06
5.75345098454e-06
5.73780777182e-06
5.72268421707e-06
5.70787559267e-06
5.6931781253e-06
5.67847468464e-06
5.66361725237e-06
5.64840744515e-06
5.63269176818e-06
5.61904218507e-06
5.60207944256e-06
5.58445819792e-06
5.56601796018e-06
5.54673122351e-06
5.52661748629e-06
5.50572132942e-06
5.48406018573e-06
5.46170404141e-06
5.43897262408e-06
5.41582183968e-06
5.39244146996e-06
5.36910580074e-06
5.34600900901e-06
5.32341377227e-06
5.30178693294e-06
5.28129601263e-06
5.26217441015e-06
5.24472793796e-06
5.22928152872e-06
5.21599538618e-06
5.20508856443e-06
5.19673193047e-06
5.19103626626e-06
5.18319813532e-06
1.214171557e-66
1.214171557e-66
1.214171557e-66
1.21417155701e-66
1.21417155701e-66
1.21417155701e-66
1.21417155701e-66
1.21417155701e-66
1.21417155702e-66
1.21417155702e-66
1.21417155702e-66
1.21417155702e-66
1.21417155702e-66
1.21417155702e-66
1.21417155702e-66
1.21417155703e-66
1.21417155708e-66
1.21417155979e-66
1.21417171618e-66
1.21418041173e-66
1.21467015294e-66
1.22578843611e-66
1.48684313629e-26
1.3423734839e-07
0.000492445931185
2.69524993076e-05
1.2155509748e-05
7.83144761659e-06
6.40759417704e-06
5.93269646823e-06
5.77822326908e-06
5.73088892689e-06
5.70910733919e-06
5.69581701068e-06
5.68361230655e-06
5.67148133249e-06
5.6592752236e-06
5.64676252599e-06
5.63391075331e-06
5.61795108939e-06
5.6042784172e-06
5.59003160182e-06
5.57516941994e-06
5.55962686283e-06
5.54338777835e-06
5.5263608975e-06
5.5084990406e-06
5.48980260382e-06
5.47040324355e-06
5.45013206658e-06
5.42902522736e-06
5.40719949594e-06
5.3846895171e-06
5.36159761551e-06
5.33829213914e-06
5.31473074528e-06
5.29109989717e-06
5.26767901004e-06
5.24465211031e-06
5.22230263807e-06
5.20107974939e-06
5.18104314766e-06
5.16245607527e-06
5.1456083355e-06
5.13071418077e-06
5.11796394237e-06
5.10753719335e-06
5.09957024098e-06
5.09415225954e-06
5.08752537768e-06
1.21417155633e-66
1.21417155633e-66
1.21417155633e-66
1.21417155633e-66
1.21417155634e-66
1.21417155634e-66
1.21417155634e-66
1.21417155634e-66
1.21417155634e-66
1.21417155634e-66
1.21417155634e-66
1.21417155634e-66
1.21417155634e-66
1.21417155634e-66
1.21417155635e-66
1.21417155635e-66
1.21417155662e-66
1.2141715721e-66
1.21417246322e-66
1.21422162648e-66
1.21697330149e-66
1.25436694706e-66
2.23056375422e-14
0.000152667745372
7.19772037546e-05
1.80487665483e-05
9.64129648768e-06
6.95599480038e-06
6.0628231949e-06
5.77552790357e-06
5.68929533194e-06
5.66346785134e-06
5.65333060715e-06
5.64552946947e-06
5.63768794206e-06
5.62934153003e-06
5.61766092701e-06
5.60802000143e-06
5.59762026288e-06
5.58644932129e-06
5.57446410515e-06
5.56164117959e-06
5.54797252664e-06
5.53338437644e-06
5.51784207509e-06
5.50132584622e-06
5.48401013314e-06
5.46570862363e-06
5.44643848734e-06
5.42627063456e-06
5.40526393107e-06
5.38347827146e-06
5.36113205326e-06
5.33839350452e-06
5.31528829467e-06
5.29202662721e-06
5.26881983726e-06
5.2458578528e-06
5.22350743538e-06
5.20199002709e-06
5.18145096022e-06
5.16215460805e-06
5.14436582297e-06
5.12827027253e-06
5.11407602949e-06
5.10196370667e-06
5.09216517543e-06
5.08470263555e-06
5.07962861976e-06
5.07384276703e-06
1.21417155592e-66
1.21417155592e-66
1.21417155592e-66
1.21417155592e-66
1.21417155592e-66
1.21417155593e-66
1.21417155593e-66
1.21417155593e-66
1.21417155593e-66
1.21417155593e-66
1.21417155593e-66
1.21417155593e-66
1.21417155593e-66
1.21417155593e-66
1.21417155593e-66
1.21417155595e-66
1.21417155703e-66
1.21417161995e-66
1.21417520365e-66
1.21437691469e-66
1.22167327967e-66
4.02769346737e-27
5.81459844409e-09
0.000425385028365
3.44393492047e-05
1.36964512051e-05
8.29320429469e-06
6.5199021324e-06
5.93100064566e-06
5.74720377312e-06
5.6923903008e-06
5.67277762802e-06
5.66297071044e-06
5.65445456007e-06
5.6458186505e-06
5.63678361239e-06
5.62453423823e-06
5.61434504331e-06
5.60350734056e-06
5.59191330531e-06
5.57950754417e-06
5.56623573114e-06
5.55207861497e-06
5.53698432467e-06
5.52090392412e-06
5.50381802609e-06
5.48586171586e-06
5.46697897391e-06
5.44713572881e-06
5.42640035338e-06
5.4048774275e-06
5.38263595236e-06
5.3598509345e-06
5.33681025124e-06
5.31348270582e-06
5.29007949275e-06
5.26684553637e-06
5.24396630867e-06
5.22174156992e-06
5.20048834029e-06
5.18026450908e-06
5.16130850598e-06
5.14389845439e-06
5.12820452165e-06
5.11441308497e-06
5.10267824069e-06
5.09311535907e-06
5.08588071209e-06
5.08096096907e-06
5.07563223334e-06
1.21417155564e-66
1.21417155564e-66
1.21417155564e-66
1.21417155565e-66
1.21417155565e-66
1.21417155565e-66
1.21417155565e-66
1.21417155565e-66
1.21417155565e-66
1.21417155565e-66
1.21417155565e-66
1.21417155565e-66
1.21417155565e-66
1.21417155565e-66
1.21417155565e-66
1.21417155573e-66
1.21417155999e-66
1.21417180719e-66
1.21418562345e-66
1.21497149933e-66
1.23009084615e-66
2.57210306158e-26
1.42500041309e-06
0.000412643516961
2.38065265044e-05
1.13391196853e-05
7.5727180394e-06
6.33290415638e-06
5.92350615915e-06
5.79417077509e-06
5.75384466469e-06
5.73392424747e-06
5.7210430509e-06
5.70895680422e-06
5.6968756244e-06
5.68457437921e-06
5.67200201038e-06
5.65911235659e-06
5.6430090945e-06
5.62895945181e-06
5.61421927907e-06
5.59878671712e-06
5.58253223399e-06
5.56540821221e-06
5.54740663918e-06
5.52850589001e-06
5.50867486095e-06
5.48794984877e-06
5.4665473324e-06
5.44432473299e-06
5.42137450346e-06
5.39788092268e-06
5.37391112736e-06
5.34964253347e-06
5.32541660894e-06
5.30121674602e-06
5.27728991855e-06
5.25390500358e-06
5.23119495757e-06
5.21199894877e-06
5.1915137807e-06
5.17239524078e-06
5.15484169016e-06
5.13912572043e-06
5.12541201882e-06
5.1137665709e-06
5.10427997269e-06
5.09702459489e-06
5.09205967097e-06
5.08689774439e-06
1.21417155544e-66
1.21417155544e-66
1.21417155544e-66
1.21417155545e-66
1.21417155545e-66
1.21417155545e-66
1.21417155545e-66
1.21417155545e-66
1.21417155545e-66
1.21417155545e-66
1.21417155545e-66
1.21417155545e-66
1.21417155545e-66
1.21417155545e-66
1.21417155545e-66
1.21417155571e-66
1.21417157025e-66
1.21417240873e-66
1.2142187786e-66
1.216820293e-66
1.25281199979e-66
2.05548051083e-14
0.000141197006647
7.68793277643e-05
1.8529253969e-05
9.92819962525e-06
7.19229507154e-06
6.28189223361e-06
5.98257835058e-06
5.88678668857e-06
5.85119376105e-06
5.83117772028e-06
5.8139564108e-06
5.79736135697e-06
5.78099702354e-06
5.76451052767e-06
5.74779697957e-06
5.73080646593e-06
5.71342244824e-06
5.695551025e-06
5.6771370821e-06
5.65825173514e-06
5.63865123658e-06
5.61834580401e-06
5.59472416082e-06
5.57294805544e-06
5.552975381e-06
5.52961219213e-06
5.50555751698e-06
5.48080322764e-06
5.45567335862e-06
5.43010062133e-06
5.40420942409e-06
5.37820026845e-06
5.35216456158e-06
5.32642752013e-06
5.30122720338e-06
5.2766610518e-06
5.25299007268e-06
5.23039124183e-06
5.20903919055e-06
5.18924032764e-06
5.17120423688e-06
5.15503053959e-06
5.14089126293e-06
5.12891020474e-06
5.1192241291e-06
5.1118311936e-06
5.10677629377e-06
5.10173084385e-06
1.21417155529e-66
1.21417155529e-66
1.21417155529e-66
1.2141715553e-66
1.2141715553e-66
1.2141715553e-66
1.2141715553e-66
1.2141715553e-66
1.2141715553e-66
1.2141715553e-66
1.2141715553e-66
1.2141715553e-66
1.2141715553e-66
1.2141715553e-66
1.21417155531e-66
1.2141715559e-66
1.21417158955e-66
1.21417350486e-66
1.21427813192e-66
1.21997039245e-66
1.28741614284e-66
2.20291006286e-10
0.000327988546121
4.2591183663e-05
1.54077482074e-05
9.07428040585e-06
7.01716126954e-06
6.32916267725e-06
6.10175294627e-06
6.02378436224e-06
5.98689620497e-06
5.96161279298e-06
5.93840280761e-06
5.91601455693e-06
5.89388393661e-06
5.87181645603e-06
5.84980133484e-06
5.82763063973e-06
5.80523952378e-06
5.78278132565e-06
5.75990187506e-06
5.73653804489e-06
5.71267429113e-06
5.68820582084e-06
5.66318293485e-06
5.63767402635e-06
5.61150128885e-06
5.58479375423e-06
5.55754691417e-06
5.52976757904e-06
5.50162818478e-06
5.47318084874e-06
5.44472981529e-06
5.41638529265e-06
5.38819900957e-06
5.36044276745e-06
5.33326580203e-06
5.30702507794e-06
5.28190717714e-06
5.25799574162e-06
5.23551519637e-06
5.21461559275e-06
5.19827295779e-06
5.1812540339e-06
5.16647484363e-06
5.15396289381e-06
5.1437868967e-06
5.13600292787e-06
5.13066488892e-06
5.12552432791e-06
1.21417155518e-66
1.21417155518e-66
1.21417155518e-66
1.21417155518e-66
1.21417155518e-66
1.21417155518e-66
1.21417155518e-66
1.21417155518e-66
1.21417155518e-66
1.21417155518e-66
1.21417155518e-66
1.21417155518e-66
1.21417155518e-66
1.21417155518e-66
1.21417155522e-66
1.21417155709e-66
1.21417166512e-66
1.21417772951e-66
1.2145190671e-66
1.2238210385e-66
9.29757376287e-27
3.68866848358e-08
0.000481067057636
3.0714387016e-05
1.33746315044e-05
8.56238436066e-06
6.97750816086e-06
6.44363150052e-06
6.26149868294e-06
6.19353899391e-06
6.15229829029e-06
6.12035540908e-06
6.09025220631e-06
6.06093295448e-06
6.03215400263e-06
6.00364527005e-06
5.97536864648e-06
5.9471359954e-06
5.91903563171e-06
5.89089268752e-06
5.86252709573e-06
5.83392640394e-06
5.80493190584e-06
5.77575409716e-06
5.74620015783e-06
5.7161774137e-06
5.68571847579e-06
5.65477768542e-06
5.62371470389e-06
5.5922865993e-06
5.56074229775e-06
5.52909991416e-06
5.50015180827e-06
5.46877233341e-06
5.43780164387e-06
5.40763392375e-06
5.37821491618e-06
5.34983037788e-06
5.32267321177e-06
5.29692351047e-06
5.27298815391e-06
5.25081623986e-06
5.23061245791e-06
5.21266374201e-06
5.19702833782e-06
5.18379627366e-06
5.17304671481e-06
5.16484062438e-06
5.1592239721e-06
5.15404675389e-06
1.21417155509e-66
1.21417155509e-66
1.21417155509e-66
1.21417155509e-66
1.21417155509e-66
1.21417155509e-66
1.21417155509e-66
1.21417155509e-66
1.21417155509e-66
1.21417155509e-66
1.21417155509e-66
1.21417155509e-66
1.21417155509e-66
1.21417155509e-66
1.21417155518e-66
1.21417156019e-66
1.2141718504e-66
1.21418805621e-66
1.21510795098e-66
1.23210138126e-66
3.00344480548e-26
3.48304027285e-06
0.000393035558761
2.42291475465e-05
1.19464614995e-05
8.25205888242e-06
7.02906837877e-06
6.60808086626e-06
6.4583175306e-06
6.39162170522e-06
6.34704294613e-06
6.30436026509e-06
6.2662645443e-06
6.22922591161e-06
6.19287138576e-06
6.15705624515e-06
6.12178337549e-06
6.08695067012e-06
6.05235979506e-06
6.01793754653e-06
5.98350087372e-06
5.94896045252e-06
5.91703598459e-06
5.88235156237e-06
5.84740696844e-06
5.81223746174e-06
5.77676970938e-06
5.74144401504e-06
5.70585136469e-06
5.67031162871e-06
5.63470555601e-06
5.59925956952e-06
5.56405566687e-06
5.5295539593e-06
5.49562993766e-06
5.462491897e-06
5.43030783004e-06
5.39947932902e-06
5.37019825613e-06
5.34248875907e-06
5.31928471893e-06
5.29544562088e-06
5.27379670728e-06
5.25461502286e-06
5.23791871441e-06
5.22379349584e-06
5.21231901262e-06
5.20355480661e-06
5.19756886632e-06
5.19226781575e-06
1.21417155501e-66
1.21417155501e-66
1.21417155501e-66
1.21417155501e-66
1.21417155501e-66
1.21417155501e-66
1.21417155501e-66
1.21417155501e-66
1.21417155501e-66
1.21417155502e-66
1.21417155502e-66
1.21417155502e-66
1.21417155502e-66
1.21417155502e-66
1.21417155526e-66
1.21417156916e-66
1.21417236548e-66
1.21421618611e-66
1.21665742153e-66
1.25118710115e-66
1.44817236771e-14
0.000122132855209
9.09635430805e-05
2.00025099528e-05
1.09570766636e-05
8.09870967397e-06
7.13991711763e-06
6.80750859002e-06
6.67843780748e-06
6.61284458942e-06
6.561050162e-06
6.51287926662e-06
6.46639967609e-06
6.4210635105e-06
6.37676248731e-06
6.33315672901e-06
6.29018405957e-06
6.2478897468e-06
6.20611774084e-06
6.16466404417e-06
6.12337345815e-06
6.08254749682e-06
6.04174779021e-06
6.00109079064e-06
5.9603654556e-06
5.91959582875e-06
5.87893483172e-06
5.8383918074e-06
5.79787460032e-06
5.7574100254e-06
5.71739896331e-06
5.68040946133e-06
5.64145597221e-06
5.6031618081e-06
5.56585462879e-06
5.52950153669e-06
5.49441430584e-06
5.46074236758e-06
5.42899092087e-06
5.39902738073e-06
5.3710748186e-06
5.34533421996e-06
5.32201926878e-06
5.30145509029e-06
5.28360933201e-06
5.26848626652e-06
5.25616589773e-06
5.24676885721e-06
5.2403928402e-06
5.23501314068e-06
1.21417155495e-66
1.21417155495e-66
1.21417155495e-66
1.21417155495e-66
1.21417155495e-66
1.21417155495e-66
1.21417155495e-66
1.21417155495e-66
1.21417155495e-66
1.21417155495e-66
1.21417155495e-66
1.21417155495e-66
1.21417155495e-66
1.21417155496e-66
1.21417155552e-66
1.21417158693e-66
1.21417336715e-66
1.21427026369e-66
1.21952242321e-66
1.28196987613e-66
3.05979117219e-11
0.00028599423693
4.90621866498e-05
1.71566134008e-05
1.02943018427e-05
8.08037292711e-06
7.32535509087e-06
7.05024536075e-06
6.9325606535e-06
6.86068243625e-06
6.79939602144e-06
6.74145708555e-06
6.68525684286e-06
6.63036888488e-06
6.57705523935e-06
6.52473047692e-06
6.47330296515e-06
6.42302832748e-06
6.373480713e-06
6.32452987634e-06
6.27605880724e-06
6.22807846273e-06
6.18055684363e-06
6.13323593516e-06
6.08916798095e-06
6.04232537771e-06
5.99587598963e-06
5.94977303424e-06
5.90395093047e-06
5.85850262354e-06
5.81373940267e-06
5.76963455505e-06
5.72631165885e-06
5.68392055771e-06
5.64259133992e-06
5.60279507072e-06
5.56732897116e-06
5.53071458306e-06
5.49600891568e-06
5.46363087782e-06
5.43346303099e-06
5.4058489215e-06
5.38087430747e-06
5.35867751688e-06
5.33942909971e-06
5.32317657157e-06
5.30998055052e-06
5.29990889983e-06
5.29300621624e-06
5.28731723425e-06
1.2141715549e-66
1.2141715549e-66
1.2141715549e-66
1.2141715549e-66
1.2141715549e-66
1.2141715549e-66
1.2141715549e-66
1.2141715549e-66
1.2141715549e-66
1.2141715549e-66
1.2141715549e-66
1.2141715549e-66
1.2141715549e-66
1.21417155493e-66
1.21417155656e-66
1.21417164968e-66
1.21417684678e-66
1.21446576379e-66
1.22318986419e-66
6.97349502295e-27
1.72121489225e-08
0.000453097324648
3.47206220845e-05
1.50666741e-05
9.88003386366e-06
8.15699875135e-06
7.56268490572e-06
7.33318529519e-06
7.21664573215e-06
7.135535523e-06
7.06237140731e-06
6.99245391032e-06
6.92510487882e-06
6.8596339634e-06
6.7961372473e-06
6.7342738785e-06
6.67374698368e-06
6.6142905744e-06
6.5590936398e-06
6.50192917392e-06
6.4456130792e-06
6.38992737351e-06
6.33505939182e-06
6.28076263297e-06
6.22690641181e-06
6.17380917803e-06
6.12125103983e-06
6.06928819197e-06
6.01781600244e-06
5.96998633834e-06
5.91989326848e-06
5.870947905e-06
5.82306398919e-06
5.77648483451e-06
5.73123582639e-06
5.68747987429e-06
5.64577517149e-06
5.60599572269e-06
5.56847275411e-06
5.53613293146e-06
5.50348469744e-06
5.47353695967e-06
5.44662979393e-06
5.42281194014e-06
5.40210936916e-06
5.38466705318e-06
5.37058974581e-06
5.35985966015e-06
5.35250190456e-06
5.34667680991e-06
1.21417155486e-66
1.21417155486e-66
1.21417155486e-66
1.21417155486e-66
1.21417155486e-66
1.21417155486e-66
1.21417155486e-66
1.21417155486e-66
1.21417155486e-66
1.21417155486e-66
1.21417155486e-66
1.21417155486e-66
1.21417155486e-66
1.21417155494e-66
1.21417155954e-66
1.2141718215e-66
1.21418622504e-66
1.21498788587e-66
1.23045458133e-66
2.47357113043e-26
9.12663653065e-07
0.000456466471262
2.69694762386e-05
1.35663551028e-05
9.63828662293e-06
8.31849983736e-06
7.84600447128e-06
7.6443994618e-06
7.52751289987e-06
7.43443786694e-06
7.34812392259e-06
7.26550523928e-06
7.18574374591e-06
7.11172520782e-06
7.0368135473e-06
6.9638558559e-06
6.89301306689e-06
6.82397659136e-06
6.75634971044e-06
6.69024708843e-06
6.62536435332e-06
6.56149819304e-06
6.4988150533e-06
6.43996539675e-06
6.37907459546e-06
6.31900342784e-06
6.25962417246e-06
6.20139290052e-06
6.14408748899e-06
6.08769979762e-06
6.03225029378e-06
5.98125669976e-06
5.92847821006e-06
5.87715723275e-06
5.82777667011e-06
5.78027142778e-06
5.73488272743e-06
5.69170113444e-06
5.65090783697e-06
5.61299537218e-06
5.57784900695e-06
5.54867217694e-06
5.51970155166e-06
5.49401173888e-06
5.47182268136e-06
5.45310935751e-06
5.43794983099e-06
5.4263838459e-06
5.41843790027e-06
5.41230703733e-06
1.21417155482e-66
1.21417155482e-66
1.21417155482e-66
1.21417155482e-66
1.21417155482e-66
1.21417155482e-66
1.21417155482e-66
1.21417155482e-66
1.21417155482e-66
1.21417155482e-66
1.21417155482e-66
1.21417155482e-66
1.21417155483e-66
1.21417155508e-66
1.21417156957e-66
1.21417238995e-66
1.21421705014e-66
1.21667075973e-66
1.2515255965e-66
1.24106592945e-14
0.00011129425197
0.000109930406419
2.19812443814e-05
1.25088887158e-05
9.5519189677e-06
8.54788487159e-06
8.16321541676e-06
7.98297690051e-06
7.85925716076e-06
7.75338756494e-06
7.65363178742e-06
7.56053047225e-06
7.46787613969e-06
7.37808140758e-06
7.29127052497e-06
7.20689787479e-06
7.12510352853e-06
7.04552728045e-06
6.97094661383e-06
6.89496398167e-06
6.82067419289e-06
6.74798681954e-06
6.67662206582e-06
6.60683858952e-06
6.53834852814e-06
6.47396096832e-06
6.40780457084e-06
6.34279174251e-06
6.27894080679e-06
6.21662932345e-06
6.15579258131e-06
6.09633578274e-06
6.03848536847e-06
5.98564184568e-06
5.93183088915e-06
5.88016784482e-06
5.83078975312e-06
5.78420595039e-06
5.74033177655e-06
5.69947483851e-06
5.66167952411e-06
5.62717997437e-06
5.5960499007e-06
5.57177128184e-06
5.54791909581e-06
5.52785217786e-06
5.51162345427e-06
5.49923777181e-06
5.49070083563e-06
5.4842907585e-06
1.21417155479e-66
1.21417155479e-66
1.21417155479e-66
1.21417155479e-66
1.21417155479e-66
1.21417155479e-66
1.21417155479e-66
1.21417155479e-66
1.21417155479e-66
1.21417155479e-66
1.21417155479e-66
1.21417155479e-66
1.21417155481e-66
1.21417155548e-66
1.21417159297e-66
1.21417367828e-66
1.21428516244e-66
1.22017889429e-66
1.28932951735e-66
1.43665651221e-10
0.000297859793455
5.11958787948e-05
1.86616980545e-05
1.18231020442e-05
9.61472925557e-06
8.84538547701e-06
8.52481484881e-06
8.35107546486e-06
8.2178142717e-06
8.09668433541e-06
7.9812572185e-06
7.87061263922e-06
7.76365267057e-06
7.66062020462e-06
7.56399084442e-06
7.46757625188e-06
7.37403944669e-06
7.28308083762e-06
7.19482825784e-06
7.10876612117e-06
7.02472172776e-06
6.94577061477e-06
6.86561125286e-06
6.78714683059e-06
6.71017021773e-06
6.63500174071e-06
6.56139273248e-06
6.49246175513e-06
6.42213489566e-06
6.3535871593e-06
6.2867017476e-06
6.22162035816e-06
6.15871270969e-06
6.09799890245e-06
6.04266506666e-06
5.98671646617e-06
5.93339176182e-06
5.88318873521e-06
5.83601940869e-06
5.79213377363e-06
5.75171468998e-06
5.71488508905e-06
5.68169017834e-06
5.65534549541e-06
5.62984454845e-06
5.6084498239e-06
5.59113838786e-06
5.57792190283e-06
5.5687996806e-06
5.56213884652e-06
1.21417155476e-66
1.21417155476e-66
1.21417155476e-66
1.21417155476e-66
1.21417155476e-66
1.21417155476e-66
1.21417155476e-66
1.21417155476e-66
1.21417155476e-66
1.21417155476e-66
1.21417155477e-66
1.21417155477e-66
1.21417155481e-66
1.21417155733e-66
1.21417169931e-66
1.21417946578e-66
1.21460492174e-66
1.22531591757e-66
1.12167391142e-26
5.04013735391e-08
0.000479152872076
3.48598029458e-05
1.63608541765e-05
1.14315756212e-05
9.80370328219e-06
9.20504302194e-06
8.92695417232e-06
8.74754420034e-06
8.59777913131e-06
8.45834063777e-06
8.32547953365e-06
8.19800444294e-06
8.07911896383e-06
7.96119229708e-06
7.8479178847e-06
7.73831926463e-06
7.63228895212e-06
7.53281018258e-06
7.43318088473e-06
7.33613832456e-06
7.24197748576e-06
7.15003690663e-06
7.06392709832e-06
6.97649115066e-06
6.89105640453e-06
6.80786306493e-06
6.72654472933e-06
6.64705239089e-06
6.57292986204e-06
6.49765641431e-06
6.42457765198e-06
6.35363904197e-06
6.28534593828e-06
6.21958807058e-06
6.15956724042e-06
6.09928314282e-06
6.04214176652e-06
5.9880970545e-06
5.9374200352e-06
5.89047568135e-06
5.84728061608e-06
5.80793604957e-06
5.77260963344e-06
5.74454939682e-06
5.71741275182e-06
5.69459625815e-06
5.67607777943e-06
5.66189709425e-06
5.65206874286e-06
5.64504425627e-06
1.21417155474e-66
1.21417155474e-66
1.21417155474e-66
1.21417155474e-66
1.21417155474e-66
1.21417155474e-66
1.21417155474e-66
1.21417155474e-66
1.21417155474e-66
1.21417155474e-66
1.21417155474e-66
1.21417155474e-66
1.21417155491e-66
1.21417156423e-66
1.21417208513e-66
1.21420013767e-66
1.21572330788e-66
1.24054019458e-66
1.20734579455e-18
2.99343601294e-05
0.000326418575248
2.65647480782e-05
1.47939991547e-05
1.12791171879e-05
1.00906891689e-05
9.61260274886e-06
9.3541486945e-06
9.16595327663e-06
8.99762825187e-06
8.8387723796e-06
8.69087643829e-06
8.54593185429e-06
8.40691276531e-06
8.27335418634e-06
8.14826913237e-06
8.02431365076e-06
7.90497838126e-06
7.78960024992e-06
7.68134256416e-06
7.57320098514e-06
7.46826568792e-06
7.36600245214e-06
7.26686539304e-06
7.17362347708e-06
7.07933346827e-06
6.98777229357e-06
6.89847646655e-06
6.81154456359e-06
6.73056057293e-06
6.64844355074e-06
6.56907167472e-06
6.49223379457e-06
6.41810170142e-06
6.34700711904e-06
6.28233085795e-06
6.21755104334e-06
6.15610769597e-06
6.09826876079e-06
6.04425032096e-06
5.99422409869e-06
5.94818510648e-06
5.90628937569e-06
5.87193338293e-06
5.83871146409e-06
5.80994072324e-06
5.78572356861e-06
5.7660577037e-06
5.75097702511e-06
5.74047531634e-06
5.73314873898e-06
1.21417155472e-66
1.21417155472e-66
1.21417155472e-66
1.21417155472e-66
1.21417155472e-66
1.21417155472e-66
1.21417155472e-66
1.21417155472e-66
1.21417155472e-66
1.21417155472e-66
1.21417155472e-66
1.21417155473e-66
1.21417155531e-66
1.21417158732e-66
1.21417335077e-66
1.21426689785e-66
1.21919184503e-66
1.27871319138e-66
3.44939580053e-12
0.000230632363675
6.67651369809e-05
2.16142596497e-05
1.38105223602e-05
1.13281438088e-05
1.04527801673e-05
1.00582464862e-05
9.80532400633e-06
9.60117469168e-06
9.41629540779e-06
9.23740022988e-06
9.06674071561e-06
8.90355877897e-06
8.7508029974e-06
8.60071960314e-06
8.45688749538e-06
8.32191211934e-06
8.18824874497e-06
8.05970493038e-06
7.93514379081e-06
7.8185545934e-06
7.70207872678e-06
7.58929166816e-06
7.47999951104e-06
7.37729247703e-06
7.27388565126e-06
7.17373970964e-06
7.07644161878e-06
6.9817560914e-06
6.8936040803e-06
6.80479524744e-06
6.71875176361e-06
6.63596381149e-06
6.55635366848e-06
6.48348993243e-06
6.41036692097e-06
6.3409370847e-06
6.27536645813e-06
6.21369311768e-06
6.1561465966e-06
6.10279059503e-06
6.05703671073e-06
6.01253485161e-06
5.97260455538e-06
5.93747559098e-06
5.90702048265e-06
5.88146296729e-06
5.86071255411e-06
5.84477047398e-06
5.83363707357e-06
5.8259627224e-06
1.2141715547e-66
1.2141715547e-66
1.2141715547e-66
1.2141715547e-66
1.2141715547e-66
1.2141715547e-66
1.2141715547e-66
1.2141715547e-66
1.2141715547e-66
1.2141715547e-66
1.2141715547e-66
1.21417155475e-66
1.21417155727e-66
1.21417169715e-66
1.21417925047e-66
1.21458622583e-66
1.22520148333e-66
9.95276840125e-27
3.32121149514e-08
0.000458996295073
3.92938168911e-05
1.8533253757e-05
1.32832726425e-05
1.15640468874e-05
1.089900139e-05
1.05419505654e-05
1.02861518346e-05
1.00596208856e-05
9.84741526649e-06
9.64627041253e-06
9.45855083674e-06
9.27605867007e-06
9.10142152229e-06
8.93811973609e-06
8.7780078915e-06
8.62416964438e-06
8.47987867281e-06
8.33758797943e-06
8.20014194127e-06
8.06778841776e-06
7.9432975633e-06
7.81914642973e-06
7.69923622275e-06
7.58650971334e-06
7.47388720009e-06
7.36479424258e-06
7.25903654572e-06
7.15672017865e-06
7.06102401419e-06
6.96525309925e-06
6.87297462113e-06
6.78417080083e-06
6.69883541627e-06
6.62072354973e-06
6.54281431454e-06
6.46868119688e-06
6.39897559283e-06
6.33354466046e-06
6.272472923e-06
6.21950514089e-06
6.16759908564e-06
6.12042497281e-06
6.07806786586e-06
6.04087303411e-06
6.00872189047e-06
5.9816287519e-06
5.95968178632e-06
5.94279169797e-06
5.93094803206e-06
5.92289956571e-06
1.21417155468e-66
1.21417155468e-66
1.21417155468e-66
1.21417155468e-66
1.21417155468e-66
1.21417155468e-66
1.21417155468e-66
1.21417155468e-66
1.21417155468e-66
1.21417155468e-66
1.21417155469e-66
1.2141715549e-66
1.2141715664e-66
1.21417219655e-66
1.21420551548e-66
1.21597727758e-66
1.24386130106e-66
1.72037478566e-18
3.99657281255e-05
0.000335051881469
2.84666076906e-05
1.66176480865e-05
1.31231075764e-05
1.19261379032e-05
1.13942184664e-05
1.10542793997e-05
1.07805063847e-05
1.05293112297e-05
1.0296428012e-05
1.00718323956e-05
9.85836411773e-06
9.65879379698e-06
9.46458675575e-06
9.28315471859e-06
9.10592878955e-06
8.93658344286e-06
8.77749185089e-06
8.62111129902e-06
8.47060811829e-06
8.32546628214e-06
8.18929546417e-06
8.05415054537e-06
7.92333328145e-06
7.80097245414e-06
7.67841853603e-06
7.56031861334e-06
7.44604461858e-06
7.33928443988e-06
7.2322396085e-06
7.12958559539e-06
7.03077951894e-06
6.93585646857e-06
6.8484018167e-06
6.76144864518e-06
6.67873192558e-06
6.60036727268e-06
6.5263494086e-06
6.46080916525e-06
6.39596466413e-06
6.33630410444e-06
6.2815970166e-06
6.23192955769e-06
6.1875529599e-06
6.14836892892e-06
6.11462742794e-06
6.08608687066e-06
6.0666769573e-06
6.04877907871e-06
6.03620761223e-06
6.02780065502e-06
1.21417155467e-66
1.21417155467e-66
1.21417155467e-66
1.21417155467e-66
1.21417155467e-66
1.21417155467e-66
1.21417155467e-66
1.21417155467e-66
1.21417155467e-66
1.21417155467e-66
1.21417155468e-66
1.21417155556e-66
1.2141716025e-66
1.21417412378e-66
1.21430464788e-66
1.22091798494e-66
2.59955734254e-28
1.80374399275e-10
0.000284345263376
6.22918653216e-05
2.28536611189e-05
1.55456950657e-05
1.32447277391e-05
1.23823281639e-05
1.19185310395e-05
1.15815936679e-05
1.1284599746e-05
1.10109862553e-05
1.07490627045e-05
1.05044678528e-05
1.02688331729e-05
1.00482313375e-05
9.83481311571e-06
9.63088137052e-06
9.44008854336e-06
9.25392382449e-06
9.07945638649e-06
8.90830812592e-06
8.74440184003e-06
8.59051278992e-06
8.43820830106e-06
8.29181112569e-06
8.15053782171e-06
8.01780471939e-06
7.88610762129e-06
7.75893109219e-06
7.64006478145e-06
7.52153912702e-06
7.40731476816e-06
7.29719954393e-06
7.19165128618e-06
7.09429517898e-06
6.99741016854e-06
6.90516930883e-06
6.81732138643e-06
6.73855605789e-06
6.66047534551e-06
6.58724726095e-06
6.51918374354e-06
6.45639596389e-06
6.3989164641e-06
6.34683995438e-06
6.30408611559e-06
6.26297985595e-06
6.2273965961e-06
6.1974994915e-06
6.17311995331e-06
6.1542736946e-06
6.14097060049e-06
6.13217798031e-06
1.21417155465e-66
1.21417155465e-66
1.21417155465e-66
1.21417155465e-66
1.21417155465e-66
1.21417155465e-66
1.21417155465e-66
1.21417155465e-66
1.21417155465e-66
1.21417155466e-66
1.21417155475e-66
1.21417156008e-66
1.21417184871e-66
1.21418702819e-66
1.21498789696e-66
1.23078515868e-66
2.12222331903e-26
2.92353408778e-07
0.000499181124362
3.66560680952e-05
1.96544240222e-05
1.50970393713e-05
1.35832624784e-05
1.29163417577e-05
1.24826992658e-05
1.21264650691e-05
1.18007856079e-05
1.14953606197e-05
1.12109527906e-05
1.09418946954e-05
1.06832238952e-05
1.04376179273e-05
1.0207962504e-05
9.98526682198e-06
9.77707540414e-06
9.57429277815e-06
9.38454954713e-06
9.19846119313e-06
9.02040517432e-06
8.85325170988e-06
8.68886255624e-06
8.53096158581e-06
8.38292196782e-06
8.23613485654e-06
8.09500946029e-06
7.9589204535e-06
7.83158743959e-06
7.70524831125e-06
7.58363639834e-06
7.47097943794e-06
7.35885963039e-06
7.25157985073e-06
7.14884187589e-06
7.05127041556e-06
6.96288820316e-06
6.87541252412e-06
6.7932209312e-06
6.71641247482e-06
6.64504680802e-06
6.58325082386e-06
6.52295647396e-06
6.46838407259e-06
6.41967376771e-06
6.37665857897e-06
6.33953916482e-06
6.30815258778e-06
6.28263590396e-06
6.26290264215e-06
6.24887834472e-06
6.23964292198e-06
1.21417155464e-66
1.21417155464e-66
1.21417155464e-66
1.21417155464e-66
1.21417155464e-66
1.21417155464e-66
1.21417155464e-66
1.21417155464e-66
1.21417155464e-66
1.21417155465e-66
1.21417155523e-66
1.2141715863e-66
1.2141732499e-66
1.21425922984e-66
1.2186527566e-66
1.27327426643e-66
4.739139624e-14
0.000170708667806
0.000110121377711
2.70954721342e-05
1.78825222856e-05
1.50854032936e-05
1.40487387264e-05
1.3488202292e-05
1.30571617816e-05
1.26736771138e-05
1.23210475926e-05
1.19854914566e-05
1.16736823339e-05
1.13757659276e-05
1.10976952859e-05
1.08302054542e-05
1.05807711022e-05
1.03392771863e-05
1.01136027178e-05
9.89423298209e-06
9.68899362298e-06
9.48876056629e-06
9.29667427573e-06
9.11703627897e-06
8.94048615789e-06
8.7750396493e-06
8.61181165559e-06
8.45464662545e-06
8.30378882046e-06
8.16314740878e-06
8.02362273235e-06
7.8896083911e-06
7.7648953276e-06
7.64127259444e-06
7.52294878829e-06
7.40980987645e-06
7.30618830413e-06
7.203268742e-06
7.10610683358e-06
7.01446667144e-06
6.92839512205e-06
6.85233998736e-06
6.77753232426e-06
6.70862180054e-06
6.64569282069e-06
6.58875991834e-06
6.53780641848e-06
6.49296137293e-06
6.45829276864e-06
6.42548897128e-06
6.39871820815e-06
6.37791672054e-06
6.36306734072e-06
6.35339532486e-06
1.21417155463e-66
1.21417155463e-66
1.21417155463e-66
1.21417155463e-66
1.21417155463e-66
1.21417155463e-66
1.21417155463e-66
1.21417155463e-66
1.21417155463e-66
1.21417155471e-66
1.21417155865e-66
1.21417177003e-66
1.21418278334e-66
1.21475512689e-66
1.22777985479e-66
1.36030685782e-26
6.30303323921e-08
0.000466640549241
4.45236346594e-05