/*--------------------------------*- C++ -*----------------------------------*\
| =========                 |                                                 |
| \\      /  F ield         | foam-extend: Open Source CFD                    |
|  \\    /   O peration     | Version:     4.1                                |
|   \\  /    A nd           | Web:         http://www.foam-extend.org         |
|    \\/     M anipulation  |                                                 |
\*---------------------------------------------------------------------------*/
FoamFile
{
    version     2.0;
    format      ascii;
    class       volScalarField;
    location    "0.0008";
    object      NPlus;
}
// * * * * * * * * * * * * * * * * * * * * * * * * * * * * * * * * * * * * * //

dimensions      [0 0 0 0 0 0 0];

internalField   nonuniform List<scalar> 
8400
(
9.99867028076e-266
9.99867028082e-266
9.99867028088e-266
9.99867028093e-266
9.99867028099e-266
9.99867028104e-266
9.99867028109e-266
9.99867028114e-266
9.99867028119e-266
9.99867028124e-266
9.99867028129e-266
9.99867028134e-266
9.99867028139e-266
9.99867028143e-266
9.99867028148e-266
9.99867028152e-266
9.99867028168e-266
9.99867028809e-266
9.99867065072e-266
9.99869125884e-266
9.99981458023e-266
1.00612136976e-265
1.07964358942e-265
2.81865151754e-29
5.60837043497e-06
0.0892925542256
0.324189246464
0.459367500013
0.519336840722
0.543274416979
0.551951220514
0.554892812409
0.555897169798
0.55642157974
0.55680719092
0.55714308439
0.557452925643
0.557748163646
0.558035062035
0.558317599809
0.558599710559
0.558884183193
0.559173821231
0.559471912474
0.559781990509
0.560049696734
0.560387705572
0.560740346429
0.561110476137
0.561498671503
0.561905084075
0.562329039655
0.562768953
0.563223688992
0.563689269466
0.564164303469
0.56464467078
0.56512667652
0.565604656042
0.566072860439
0.566523363631
0.566951164408
0.56735098141
0.567716956516
0.568043175764
0.568324642872
0.568556617641
0.56873547883
0.568859203469
0.569114483507
9.9986702637e-266
9.99867026372e-266
9.99867026375e-266
9.99867026377e-266
9.99867026379e-266
9.99867026381e-266
9.99867026383e-266
9.99867026385e-266
9.99867026387e-266
9.99867026389e-266
9.99867026391e-266
9.99867026393e-266
9.99867026395e-266
9.99867026397e-266
9.99867026399e-266
9.99867026402e-266
9.99867026462e-266
9.99867029799e-266
9.99867221816e-266
9.99877898212e-266
1.00047920292e-265
1.01413024101e-265
2.85754669692e-99
1.76838892697e-18
0.000250610711344
0.192019229136
0.392062811272
0.493075992815
0.535147935608
0.551137012787
0.556535093181
0.558143057199
0.558772827416
0.559119656085
0.559419003298
0.559710067435
0.560001082737
0.560296091546
0.560595392134
0.560956773841
0.561269481068
0.561592489204
0.561926008741
0.562271340897
0.562630597109
0.563004485807
0.563393538364
0.563798176929
0.564217463957
0.564653024871
0.565104098353
0.565570319673
0.566049282798
0.566538854953
0.567034110427
0.567533790355
0.568034031765
0.568531500376
0.569019943055
0.569493800956
0.569945650164
0.570372033203
0.570767523436
0.571127419249
0.571446409598
0.571719848096
0.571943972462
0.572115968198
0.572234195735
0.572443598521
9.99867025548e-266
9.99867025549e-266
9.9986702555e-266
9.99867025552e-266
9.99867025553e-266
9.99867025554e-266
9.99867025556e-266
9.99867025557e-266
9.99867025558e-266
9.99867025559e-266
9.99867025561e-266
9.99867025562e-266
9.99867025563e-266
9.99867025564e-266
9.99867025565e-266
9.99867025572e-266
9.99867025903e-266
9.9986704491e-266
9.9986813903e-266
9.99928501718e-266
1.00330701078e-265
1.04921896252e-265
6.11937650183e-42
3.98863667247e-07
0.0419312935184
0.291162744858
0.446558266979
0.517327053299
0.545596631052
0.555663326508
0.558757804224
0.55965849085
0.55999527336
0.560228880911
0.560448651867
0.560672307201
0.560960792879
0.561204054429
0.561460328623
0.561729332842
0.562011984683
0.562308932199
0.562622162058
0.562951515759
0.563297845484
0.563661721346
0.564041621116
0.564439586776
0.564855414032
0.56528899041
0.565739056847
0.566203442155
0.566678915658
0.567162503792
0.567652325412
0.568145380154
0.568637469933
0.569123557863
0.569597528953
0.570054534659
0.570490442163
0.570900439665
0.571279809805
0.571623096759
0.571925938624
0.572184568854
0.572395035792
0.572556057965
0.572666529527
0.572845595917
9.99867025044e-266
9.99867025045e-266
9.99867025046e-266
9.99867025047e-266
9.99867025048e-266
9.99867025049e-266
9.9986702505e-266
9.99867025051e-266
9.99867025052e-266
9.99867025053e-266
9.99867025054e-266
9.99867025054e-266
9.99867025055e-266
9.99867025056e-266
9.99867025057e-266
9.99867025081e-266
9.99867026409e-266
9.99867103661e-266
9.99871503723e-266
1.00011916473e-265
1.00907764822e-265
8.10262184351e-100
1.4532316467e-22
3.93665927616e-05
0.13956236951
0.361915279268
0.480235870374
0.530874512778
0.550386137764
0.556928465622
0.558860534143
0.559495377434
0.559792751567
0.560033824121
0.560267569786
0.560503648941
0.560801906716
0.561053331104
0.56131583028
0.561590456987
0.561878474095
0.562181123097
0.5625001424
0.562836411583
0.563190304621
0.563562347444
0.563951314833
0.564357831103
0.564782140557
0.565223651762
0.565681336873
0.566152203494
0.566633319382
0.567120469334
0.567612518357
0.568105942088
0.568596758793
0.569079259812
0.569548069438
0.569997788726
0.570425694313
0.570826863283
0.571197173565
0.571531038623
0.571824317061
0.572073895792
0.572277577057
0.572432857615
0.572539432098
0.572701772455
9.99867024703e-266
9.99867024704e-266
9.99867024705e-266
9.99867024705e-266
9.99867024706e-266
9.99867024707e-266
9.99867024707e-266
9.99867024708e-266
9.99867024709e-266
9.9986702471e-266
9.9986702471e-266
9.99867024711e-266
9.99867024712e-266
9.99867024712e-266
9.99867024715e-266
9.99867024805e-266
9.9986703004e-266
9.99867333552e-266
9.99884297171e-266
1.00084919629e-265
1.01941274394e-265
4.73457916035e-99
8.40389011462e-15
0.000867288120157
0.221571688112
0.409048201838
0.500400158552
0.537839183729
0.55177984362
0.556309047903
0.557655104989
0.558221189139
0.558561716794
0.558866784407
0.559164264209
0.559461345202
0.559760575012
0.560062874633
0.560427925622
0.560746543207
0.561077113589
0.561419906578
0.561776659494
0.56214847217
0.562536783867
0.562942384627
0.563364865812
0.56380389975
0.564257369389
0.564726214503
0.565208589502
0.565702823442
0.566205471533
0.566713678346
0.567222591572
0.567730328861
0.56823230431
0.568723864504
0.569201123307
0.569603727593
0.57003687619
0.570440989992
0.570812026913
0.571144659865
0.571435305713
0.571682031182
0.571883420799
0.572038198847
0.572145117701
0.572299432922
9.99867024458e-266
9.99867024458e-266
9.99867024459e-266
9.99867024459e-266
9.9986702446e-266
9.99867024461e-266
9.99867024461e-266
9.99867024462e-266
9.99867024462e-266
9.99867024463e-266
9.99867024464e-266
9.99867024464e-266
9.99867024465e-266
9.99867024465e-266
9.99867024471e-266
9.99867024781e-266
9.99867042635e-266
9.99868072125e-266
9.99925005093e-266
1.00311914682e-265
1.04730979686e-265
9.89686835642e-47
2.91060037431e-07
0.0372428278173
0.285122906854
0.44117265525
0.512468373217
0.541031770997
0.551324638769
0.55458163967
0.555658468429
0.556182674688
0.556596290566
0.556983314814
0.55736094095
0.557736485599
0.558112556213
0.558491766744
0.558875939372
0.559266657499
0.559665698707
0.560073609701
0.560493545815
0.560924601306
0.561423297515
0.561881843046
0.562301168854
0.562791098067
0.563293666134
0.563809301983
0.564334128782
0.56486718976
0.56540586847
0.565948164386
0.566490521868
0.567027554824
0.56755423515
0.568066871315
0.568562056334
0.569035588379
0.569483322343
0.569899986791
0.570280700412
0.570621854465
0.570919703533
0.57117203409
0.571377287497
0.571534419889
0.571642525239
0.571791422715
9.99867024274e-266
9.99867024274e-266
9.99867024275e-266
9.99867024275e-266
9.99867024276e-266
9.99867024276e-266
9.99867024277e-266
9.99867024277e-266
9.99867024278e-266
9.99867024278e-266
9.99867024279e-266
9.99867024279e-266
9.9986702428e-266
9.9986702428e-266
9.99867024293e-266
9.99867025018e-266
9.9986706633e-266
9.99869417958e-266
9.99997879151e-266
1.00698684176e-265
1.08979679489e-265
1.52466198184e-26
9.97866339523e-06
0.102417040886
0.333479375646
0.462912803604
0.519420807337
0.541603515115
0.549382172949
0.551881109734
0.552871354648
0.553468398814
0.553987500288
0.554482010141
0.554966216239
0.555444775719
0.555920440395
0.556395584029
0.55687197345
0.557349050953
0.557831769893
0.55832190152
0.558821774355
0.559331480674
0.559851137857
0.560380741498
0.560922116743
0.561474377596
0.562037302743
0.562610206884
0.563192431792
0.563779849881
0.564368134532
0.564954863342
0.565538117577
0.566114899377
0.566679073804
0.567224402127
0.567747173704
0.568244881497
0.568714986329
0.569154036756
0.569495967324
0.569853204929
0.57016382939
0.57042670838
0.570640802731
0.57080516381
0.570918584081
0.571067235732
9.99867024132e-266
9.99867024132e-266
9.99867024133e-266
9.99867024133e-266
9.99867024133e-266
9.99867024134e-266
9.99867024134e-266
9.99867024135e-266
9.99867024135e-266
9.99867024136e-266
9.99867024136e-266
9.99867024136e-266
9.99867024137e-266
9.99867024138e-266
9.99867024178e-266
9.99867026473e-266
9.99867159118e-266
9.99874604983e-266
1.00029369958e-265
1.01171466845e-265
1.82602055105e-99
3.58442710627e-20
0.000106096456224
0.163906864877
0.370675480956
0.477634623461
0.522952283587
0.540429450261
0.546485683235
0.548501029754
0.549498379457
0.550199409948
0.550839867998
0.55145783884
0.552062294
0.552657580788
0.55324747755
0.553833270034
0.554415573545
0.554997164864
0.555580989875
0.556169234162
0.556763211516
0.557360980852
0.557965252485
0.558578172004
0.559200389831
0.55983107147
0.560466823931
0.561109261784
0.561755437705
0.562404144606
0.562996715462
0.563641845048
0.564278043864
0.564900508293
0.565507363109
0.566094811425
0.566657446375
0.567190947376
0.567689187648
0.568151156663
0.568572323921
0.568948039707
0.56927524897
0.56955199249
0.569776906981
0.569948835415
0.570066784605
0.570214180915
9.99867024019e-266
9.9986702402e-266
9.9986702402e-266
9.9986702402e-266
9.99867024021e-266
9.99867024021e-266
9.99867024022e-266
9.99867024022e-266
9.99867024022e-266
9.99867024023e-266
9.99867024023e-266
9.99867024023e-266
9.99867024024e-266
9.99867024026e-266
9.99867024132e-266
9.99867030285e-266
9.998673866e-266
9.99887284111e-266
1.00101673174e-265
1.02188128075e-265
5.43243827889e-99
2.86650697713e-13
0.00104337800854
0.219074871282
0.400152592202
0.487914963852
0.524169408862
0.538014044844
0.542784231265
0.544565825975
0.545563000911
0.546448967966
0.547227264821
0.547981298584
0.5487195195
0.549445484249
0.550159312266
0.550863302517
0.551561695638
0.552256570049
0.552950536832
0.55364698654
0.554289226899
0.554989456145
0.555692990275
0.556402383525
0.557116461535
0.557829769767
0.558547865747
0.559267952865
0.559989120211
0.560710045351
0.561425386495
0.562128755771
0.562820730777
0.563499654425
0.564160068184
0.564794041949
0.56539701521
0.56596822421
0.566447617256
0.566942539338
0.567391639689
0.567791174064
0.568138500083
0.568432189222
0.568670932833
0.568853430218
0.568978555507
0.569126542673
9.99867023929e-266
9.99867023929e-266
9.99867023929e-266
9.9986702393e-266
9.9986702393e-266
9.9986702393e-266
9.99867023931e-266
9.99867023931e-266
9.99867023931e-266
9.99867023931e-266
9.99867023932e-266
9.99867023932e-266
9.99867023932e-266
9.99867023938e-266
9.99867024235e-266
9.99867041294e-266
9.99868019024e-266
9.99921822031e-266
1.00291917308e-265
1.04531474484e-265
7.08978037448e-47
1.64550640278e-07
0.0274040440281
0.268098863317
0.422989895799
0.494663079333
0.523851927925
0.534747892061
0.538599661775
0.540197640578
0.541280946586
0.54224437249
0.543164498548
0.544059245022
0.544934478753
0.545794411888
0.546642199882
0.547476932109
0.548301245135
0.549120578548
0.54993575224
0.550744244978
0.551551638333
0.552358352013
0.553166651259
0.553977555967
0.55478726869
0.555595576348
0.556405625976
0.557215868199
0.558021125874
0.558764194488
0.559551145777
0.560324231252
0.561081203836
0.561819499204
0.562535416096
0.563222022118
0.563872465234
0.564486991525
0.565062771753
0.56559434506
0.566075172998
0.566499818418
0.566868487003
0.567181491848
0.567437178188
0.567631966633
0.567763586112
0.567909863038
9.99867023854e-266
9.99867023854e-266
9.99867023855e-266
9.99867023855e-266
9.99867023855e-266
9.99867023855e-266
9.99867023856e-266
9.99867023856e-266
9.99867023856e-266
9.99867023857e-266
9.99867023857e-266
9.99867023857e-266
9.99867023858e-266
9.9986702387e-266
9.99867024549e-266
9.99867063114e-266
9.9986924887e-266
9.99988218528e-266
1.00643682473e-265
1.08310986372e-265
5.46310848534e-28
5.34899733152e-06
0.08250477687
0.309393877135
0.440290570241
0.498410170768
0.521824976571
0.53055673896
0.533773580876
0.535360859773
0.536576150958
0.537694291278
0.538773526708
0.539827096297
0.540852216741
0.541859275691
0.542849824822
0.54382074015
0.544778704541
0.545725684733
0.546666563866
0.547598954564
0.548524295223
0.549449283324
0.550309935594
0.551230060354
0.552143105057
0.553050566934
0.553957167374
0.554857988256
0.55574851567
0.556628512441
0.557494538293
0.558345725164
0.559176787634
0.559981117912
0.560696598671
0.56144062849
0.562145617902
0.562806266099
0.563422392838
0.563989231768
0.564502402011
0.564957922041
0.565353882327
0.565688283804
0.565959726736
0.566166565825
0.566307599849
0.56645807555
9.99867023792e-266
9.99867023792e-266
9.99867023792e-266
9.99867023793e-266
9.99867023793e-266
9.99867023793e-266
9.99867023793e-266
9.99867023794e-266
9.99867023794e-266
9.99867023794e-266
9.99867023795e-266
9.99867023795e-266
9.99867023796e-266
9.99867023831e-266
9.99867025828e-266
9.99867140161e-266
9.99873521167e-266
1.00022825373e-265
1.01093971206e-265
1.38035527576e-99
3.57769532623e-21
6.00336003811e-05
0.14038230047
0.345013200768
0.45300695769
0.499990605712
0.518616625108
0.525565587364
0.528421701287
0.530072179187
0.531459156371
0.532765577133
0.534022420464
0.535247588882
0.536438265547
0.537600903905
0.538740880289
0.539864140309
0.540909319905
0.541995805297
0.543068202284
0.544132455527
0.545184008467
0.546227342154
0.547266101218
0.548293908
0.549313574578
0.550324650928
0.551331843377
0.552268048278
0.553254482869
0.554221876234
0.555170671567
0.556097130182
0.557000197633
0.557875642162
0.558714742155
0.559516181871
0.560275844044
0.560928522921
0.561593269357
0.562202660998
0.562751766253
0.563238542621
0.563661443009
0.564017995589
0.564306083617
0.564524753486
0.564673475115
0.564824197529
9.9986702374e-266
9.9986702374e-266
9.9986702374e-266
9.9986702374e-266
9.9986702374e-266
9.99867023741e-266
9.99867023741e-266
9.99867023741e-266
9.99867023741e-266
9.99867023742e-266
9.99867023742e-266
9.99867023742e-266
9.99867023744e-266
9.99867023843e-266
9.99867029493e-266
9.99867351124e-266
9.99885035806e-266
1.00086931569e-265
1.01985933832e-265
4.53779768432e-99
1.38147405657e-15
0.000554209459154
0.196137991768
0.374435735081
0.462317791488
0.499670465133
0.514402736617
0.520047877442
0.522632433607
0.524404635733
0.52597922323
0.527477989404
0.528928546542
0.530277798848
0.531649731415
0.532989847327
0.534295642437
0.53557351435
0.536830111785
0.538062383221
0.539276148881
0.540475551337
0.541657931685
0.542771324588
0.54392928402
0.545075099218
0.546211891707
0.547332552041
0.548439360054
0.549532452419
0.550613305019
0.551609477575
0.55264622615
0.553657543606
0.554635402778
0.555578615047
0.55648321201
0.557347203409
0.558165329181
0.55892894368
0.559638124721
0.560226819114
0.560814950559
0.561336173833
0.56178798352
0.562168291696
0.562475424401
0.56270865338
0.562867983571
0.563023688601
9.99867023695e-266
9.99867023695e-266
9.99867023695e-266
9.99867023695e-266
9.99867023696e-266
9.99867023696e-266
9.99867023696e-266
9.99867023696e-266
9.99867023697e-266
9.99867023697e-266
9.99867023697e-266
9.99867023697e-266
9.99867023703e-266
9.99867024016e-266
9.99867041801e-266
9.9986804906e-266
9.99922882883e-266
1.00293554974e-265
1.04573034974e-265
6.06213046274e-47
1.14179428263e-07
0.0192656469093
0.247918212262
0.398075398117
0.468471530665
0.497814627838
0.509451356347
0.514046644202
0.516529306119
0.518442366228
0.520204528875
0.52184575272
0.523487607094
0.525085376891
0.526637653474
0.528153894822
0.529630387627
0.53107450351
0.532432036178
0.533823731001
0.535190109266
0.536532974059
0.537857765761
0.539158652393
0.540442755647
0.541653162406
0.542904875109
0.544140248417
0.545358881763
0.546553268681
0.547725861772
0.54887739767
0.550003648864
0.551034087334
0.552090487114
0.553107182971
0.554082584698
0.555007881282
0.555881571467
0.556698680774
0.557455957418
0.558149232584
0.558775731319
0.559263433638
0.559745531593
0.560149596978
0.560476740617
0.560725348056
0.560894954478
0.561053025509
9.99867023656e-266
9.99867023656e-266
9.99867023657e-266
9.99867023657e-266
9.99867023657e-266
9.99867023657e-266
9.99867023657e-266
9.99867023658e-266
9.99867023658e-266
9.99867023658e-266
9.99867023658e-266
9.99867023659e-266
9.99867023674e-266
9.99867024498e-266
9.99867070532e-266
9.99869630882e-266
1.00000651123e-265
1.00724284051e-265
1.09214603783e-265
9.3041944369e-27
6.37452499475e-06
0.0780488270114
0.292789416392
0.416081166133
0.471600426907
0.494485419269
0.503634834177
0.507570918282
0.510035963171
0.512130362775
0.514107146713
0.516007681246
0.517854963854
0.519645275426
0.521332123104
0.523026953202
0.52468006358
0.526297252691
0.52787505651
0.52942212378
0.530942273312
0.532374939869
0.533840141172
0.535281853173
0.536704317811
0.538100554737
0.539475751159
0.54076815692
0.542095910542
0.543395640252
0.544670220385
0.545917112756
0.547128398083
0.548304530977
0.549378646079
0.550471265234
0.551516302057
0.552505104217
0.553437192029
0.554307845588
0.55511174036
0.555845167549
0.556508824365
0.5570341927
0.557545799586
0.557975173944
0.558321579781
0.558584094111
0.558763001138
0.558922469193
9.99867023623e-266
9.99867023623e-266
9.99867023623e-266
9.99867023623e-266
9.99867023623e-266
9.99867023624e-266
9.99867023624e-266
9.99867023624e-266
9.99867023624e-266
9.99867023624e-266
9.99867023625e-266
9.99867023626e-266
9.99867023681e-266
9.99867026778e-266
9.99867201103e-266
9.99876736781e-266
1.00039911199e-265
1.01355008232e-265
2.17155397948e-99
9.00685096459e-20
9.71207481587e-05
0.142163459378
0.330689063168
0.429104798544
0.472125987327
0.489843674355
0.497084352446
0.500678578851
0.503265191773
0.505588598823
0.507798060421
0.509932967508
0.511933386104
0.513933198691
0.515868176838
0.517752823721
0.519588830225
0.521319980308
0.523067051204
0.524780522378
0.526453551482
0.528098247706
0.529644697612
0.531227886384
0.532783720145
0.534307822146
0.53580665422
0.537281719796
0.538661791783
0.54007447229
0.541452579125
0.542798385512
0.544101112507
0.545362816466
0.546516855349
0.547683441202
0.548794187129
0.549849759298
0.550842910769
0.55176691591
0.55261947431
0.553397141728
0.55409884338
0.554653797983
0.555193643601
0.555647910659
0.556015408982
0.556295097509
0.556486543069
0.556650713148
9.99867023593e-266
9.99867023593e-266
9.99867023594e-266
9.99867023594e-266
9.99867023594e-266
9.99867023594e-266
9.99867023594e-266
9.99867023594e-266
9.99867023595e-266
9.99867023595e-266
9.99867023595e-266
9.99867023599e-266
9.99867023803e-266
9.99867035244e-266
9.99867674809e-266
9.99902117745e-266
1.0017722675e-265
1.03224246336e-265
2.6912782837e-63
7.41560427946e-10
0.00186726184358
0.203985747054
0.361265408325
0.437777808159
0.47055912044
0.484178507774
0.490106728208
0.493496788326
0.496253457955
0.498814067073
0.50120584289
0.503568799817
0.505854450515
0.508067490061
0.510154872841
0.512242284679
0.514265322905
0.516238037659
0.51809909679
0.519974496378
0.521806029753
0.523604018731
0.525360517763
0.527020861591
0.528714244321
0.5303688091
0.531993217671
0.533585976751
0.535076027923
0.536599662507
0.538080793793
0.539523487219
0.54092330656
0.542273856272
0.543505720229
0.544749655529
0.545934719917
0.547054724968
0.54810424306
0.54908149421
0.549982972008
0.550806177825
0.551479690405
0.552135445703
0.552702364308
0.553180483473
0.553567299777
0.553861976077
0.554064568939
0.554231766069
9.99867023567e-266
9.99867023567e-266
9.99867023567e-266
9.99867023568e-266
9.99867023568e-266
9.99867023568e-266
9.99867023568e-266
9.99867023568e-266
9.99867023569e-266
9.99867023569e-266
9.99867023569e-266
9.99867023582e-266
9.99867024293e-266
9.99867063591e-266
9.99869228757e-266
9.9998408595e-266
1.00603094054e-265
1.07911130324e-265
3.58441450453e-30
2.11288297652e-06
0.0499231414061
0.258694961244
0.384341285367
0.442588066229
0.4673046068
0.477703273137
0.482752598927
0.486128351624
0.489027410559
0.491824914097
0.494512511426
0.49710784789
0.499556416406
0.501986564762
0.504337191585
0.506558754388
0.508781322551
0.510935691692
0.513040949376
0.515024764129
0.517025715483
0.518976902158
0.52088264438
0.522684257549
0.524515879098
0.526300735326
0.528048243158
0.529761632247
0.531364378829
0.532993020408
0.534580748866
0.536118442046
0.537607762805
0.538975728835
0.540359302483
0.54167942304
0.542932619777
0.544116908733
0.545227276762
0.546262129859
0.547148639266
0.548017097845
0.548796361676
0.549483890493
0.550079143839
0.550579438849
0.550984266825
0.5512930561
0.551505696428
0.551675737152
9.99867023544e-266
9.99867023544e-266
9.99867023544e-266
9.99867023544e-266
9.99867023545e-266
9.99867023545e-266
9.99867023545e-266
9.99867023545e-266
9.99867023545e-266
9.99867023545e-266
9.99867023547e-266
9.99867023602e-266
9.998670267e-266
9.9986719845e-266
9.99876472414e-266
1.00037615713e-265
1.01340957986e-265
1.93143003298e-99
2.58489438595e-20
6.45518337946e-05
0.121457719271
0.303619248901
0.400567747022
0.443778150611
0.46227917764
0.470499154425
0.474987076672
0.478491725089
0.48170101119
0.484758326072
0.4876359818
0.490465334433
0.4932020013
0.495784446227
0.498343608053
0.500827013689
0.503175525216
0.505515535324
0.507795863977
0.510012578535
0.512110883412
0.514226857846
0.516286987757
0.518235664518
0.520202320414
0.522121347405
0.523996562421
0.525824916677
0.527544701087
0.529280943218
0.530965455941
0.532598249143
0.534178102719
0.53563029494
0.537090391932
0.538487405759
0.539808918039
0.541055144905
0.542224289007
0.543238058775
0.544240368933
0.54515316039
0.545974152652
0.54669648869
0.547320489466
0.547845654081
0.54827086315
0.548595546627
0.5488196897
0.548993217859
9.99867023523e-266
9.99867023523e-266
9.99867023524e-266
9.99867023524e-266
9.99867023524e-266
9.99867023524e-266
9.99867023524e-266
9.99867023524e-266
9.99867023524e-266
9.99867023525e-266
9.9986702353e-266
9.99867023786e-266
9.99867037905e-266
9.9986781161e-266
9.99908720617e-266
1.00208409172e-265
1.03632012089e-265
3.70479707602e-63
2.22825066775e-09
0.00176484754308
0.191301884626
0.338453876771
0.410652794975
0.442289133415
0.456092381738
0.462776806127
0.467086402189
0.470782400036
0.474189327171
0.477510072491
0.480703547202
0.483719965642
0.486694118852
0.489498945411
0.492271363962
0.494949601053
0.497488859844
0.500011453106
0.502464522411
0.504852771149
0.507112623798
0.509377867183
0.511592012323
0.513677357675
0.515787549645
0.517838085013
0.519840511881
0.521721828387
0.523626879239
0.525467262945
0.527251945888
0.528979734302
0.530578796379
0.532183304888
0.533718990695
0.535182668877
0.53657402902
0.537807503047
0.539037720216
0.540174843657
0.541221491124
0.542174130226
0.543028860916
0.543782547943
0.544432948116
0.544982693594
0.545350083157
0.545692592972
0.545928307495
0.546104397014
9.99867023505e-266
9.99867023505e-266
9.99867023505e-266
9.99867023505e-266
9.99867023505e-266
9.99867023505e-266
9.99867023505e-266
9.99867023506e-266
9.99867023506e-266
9.99867023506e-266
9.99867023526e-266
9.99867024595e-266
9.99867082238e-266
9.99870177864e-266
1.00003043548e-265
1.00815029668e-265
5.28327522914e-101
1.20802754011e-26
5.13754610495e-06
0.0575569133092
0.250279706434
0.363282804471
0.415624156275
0.438619595283
0.449115262116
0.454800592812
0.45911970421
0.462985984368
0.466711580568
0.470228801546
0.473666557831
0.476922810729
0.48011516135
0.483204571454
0.486124034795
0.489011062106
0.49174243781
0.494454031978
0.497079607582
0.499566531701
0.50205592621
0.504472613022
0.506828127536
0.509058145046
0.511295661909
0.513475462185
0.51552859559
0.517596516581
0.519605123075
0.521558382925
0.52344655375
0.525196878951
0.526954941793
0.528639620944
0.530257170088
0.531711555355
0.533166222352
0.534536821029
0.53581690723
0.537003068199
0.538093833344
0.53908684421
0.539898026223
0.540684869215
0.541363732312
0.541934707864
0.542398003526
0.542752851043
0.542999086581
0.54317842424
9.99867023488e-266
9.99867023488e-266
9.99867023488e-266
9.99867023488e-266
9.99867023488e-266
9.99867023488e-266
9.99867023489e-266
9.99867023489e-266
9.99867023489e-266
9.99867023491e-266
9.99867023612e-266
9.99867030147e-266
9.99867384527e-266
9.99886021905e-266
1.00086932931e-265
1.02026522149e-265
3.88978004229e-99
2.41543168782e-17
0.000194861908072
0.13769078205
0.296562164163
0.379229356711
0.416390450992
0.433095736708
0.44131575969
0.4465969528
0.451068055681
0.455243804281
0.459175033788
0.462947359772
0.466628886465
0.470175209884
0.473531117203
0.476834050073
0.479955768186
0.483039435904
0.485954239052
0.488850988431
0.491654540801
0.494312273986
0.496957881796
0.499526382558
0.501955529099
0.504391539757
0.506757247315
0.509060606299
0.511232912201
0.513412089608
0.515527290268
0.517500292789
0.519484401751
0.521396493459
0.523243003059
0.52501061194
0.526618129813
0.528224256607
0.529740887565
0.531166632169
0.532499973745
0.533655877693
0.534791648699
0.535820748107
0.536742807148
0.537557028229
0.538261322831
0.538855069286
0.539336278808
0.539704875536
0.539961600587
0.540143537003
9.99867023472e-266
9.99867023472e-266
9.99867023473e-266
9.99867023473e-266
9.99867023473e-266
9.99867023473e-266
9.99867023473e-266
9.99867023473e-266
9.99867023474e-266
9.99867023487e-266
9.99867024197e-266
9.99867062343e-266
9.99869104915e-266
9.99974671158e-266
1.00536904728e-265
1.07243338629e-265
7.64699773026e-35
6.14895566342e-07
0.0200960167475
0.209263818108
0.330027025427
0.388014761609
0.414179423336
0.426378382805
0.433214514487
0.438406548041
0.443043677102
0.447496665174
0.451694619967
0.455774753715
0.459636931794
0.463413716442
0.466980859979
0.470489409588
0.473807880898
0.477081535062
0.480178032635
0.483241399295
0.48621629621
0.489027168774
0.491826920491
0.49447487989
0.49711970399
0.499694476638
0.50219134767
0.504539082216
0.506894330412
0.509180898951
0.511321606703
0.513467873325
0.515539591584
0.517537883488
0.519377056573
0.521224891424
0.522981127173
0.52464798427
0.526224287398
0.527619801952
0.529005627574
0.530287457739
0.531463216261
0.532529355283
0.533484763716
0.534329774136
0.534975978685
0.535593045491
0.536093368632
0.536477961993
0.536746760897
0.536932131321
9.99867023458e-266
9.99867023458e-266
9.99867023459e-266
9.99867023459e-266
9.99867023459e-266
9.99867023459e-266
9.99867023459e-266
9.99867023459e-266
9.99867023461e-266
9.99867023552e-266
9.99867028399e-266
9.99867287927e-266
9.99880810075e-266
1.000583534e-265
1.01657530666e-265
2.57451103461e-99
1.69773526379e-19
7.15237311129e-05
0.103981342831
0.264654036338
0.35104788612
0.390991691122
0.409383721929
0.418764344275
0.425005132038
0.430235777765
0.435115345288
0.439830122366
0.444285903717
0.448623454372
0.452723364284
0.456726534292
0.460505747593
0.464143628769
0.467715607671
0.471172267414
0.474436616548
0.477673366194
0.480729548826
0.483764104152
0.486707932105
0.489494987639
0.492272754656
0.49489141074
0.497512410045
0.500055641186
0.502530909053
0.504844264518
0.507161698426
0.509398660256
0.51147427027
0.513554071322
0.515549364294
0.51745959346
0.519192321187
0.52092100808
0.522551831973
0.5240831314
0.525511336491
0.526835188248
0.52795693445
0.529059368538
0.530045804813
0.530916490665
0.531669937731
0.532304827634
0.532821193311
0.533218950475
0.533498844478
0.53368894737
9.99867023446e-266
9.99867023446e-266
9.99867023446e-266
9.99867023446e-266
9.99867023446e-266
9.99867023446e-266
9.99867023446e-266
9.99867023447e-266
9.99867023459e-266
9.99867024104e-266
9.99867058345e-266
9.99868868349e-266
9.99961340567e-266
1.0046295623e-265
1.06490877759e-265
3.13959392184e-41
2.08519992659e-07
0.0077175711793
0.183522609824
0.303727048649
0.362661946679
0.389773624199
0.403005594528
0.410771663672
0.416801147912
0.422223758797
0.427422019285
0.432329320243
0.437028417887
0.441590085375
0.445909855408
0.450060655602
0.454116101962
0.457949089869
0.461717587241
0.465267195756
0.468775026472
0.472085824108
0.475369003452
0.478546367152
0.481550770674
0.484542724617
0.487365431547
0.49018261565
0.492916069592
0.495484895127
0.498063147142
0.50055375833
0.50296314677
0.505202798286
0.507448097967
0.509607063429
0.511590091727
0.51356512011
0.515443710804
0.517224115866
0.518906083389
0.520392072329
0.521861080673
0.523218203863
0.52446430258
0.525595149246
0.526610352871
0.527414170237
0.528190223299
0.528843743495
0.529373964895
0.529783559305
0.530074206313
0.530267624571
9.99867023434e-266
9.99867023434e-266
9.99867023434e-266
9.99867023434e-266
9.99867023434e-266
9.99867023434e-266
9.99867023435e-266
9.99867023437e-266
9.99867023541e-266
9.99867029034e-266
9.99867318171e-266
9.99882137557e-266
1.00063849266e-265
1.01745699925e-265
2.65429624594e-99
1.65738773054e-19
6.12185208643e-05
0.0916340598503
0.244597947769
0.327827486146
0.366946320479
0.385651508682
0.39572605952
0.402745335467
0.408797695571
0.414456456889
0.419836155004
0.425043850922
0.429964650617
0.434681427963
0.439273086135
0.443612742408
0.44785097592
0.451866700099
0.455727804713
0.459532112071
0.463118516347
0.466661696259
0.47008792585
0.473322021341
0.476533784958
0.479561551899
0.482580568341
0.485507771176
0.488263192673
0.491016004199
0.493681490714
0.496173396327
0.498668610808
0.501075226211
0.503298247326
0.5055258971
0.507659897557
0.509698131992
0.511542962726
0.513380738358
0.515106926398
0.516726682151
0.518237640224
0.519534004295
0.520813833602