/*--------------------------------*- C++ -*----------------------------------*\
| =========                 |                                                 |
| \\      /  F ield         | foam-extend: Open Source CFD                    |
|  \\    /   O peration     | Version:     4.1                                |
|   \\  /    A nd           | Web:         http://www.foam-extend.org         |
|    \\/     M anipulation  |                                                 |
\*---------------------------------------------------------------------------*/
FoamFile
{
    version     2.0;
    format      ascii;
    class       volScalarField;
    location    "0.0008";
    object      O;
}
// * * * * * * * * * * * * * * * * * * * * * * * * * * * * * * * * * * * * * //

dimensions      [0 0 0 0 0 0 0];

internalField   nonuniform List<scalar> 
8400
(
7.23199835159e-54
7.23199835162e-54
7.23199835165e-54
7.23199835168e-54
7.23199835171e-54
7.23199835174e-54
7.23199835177e-54
7.2319983518e-54
7.23199835183e-54
7.23199835186e-54
7.23199835189e-54
7.23199835191e-54
7.23199835194e-54
7.23199835197e-54
7.23199835199e-54
7.23199835202e-54
7.23199835211e-54
7.23199835573e-54
7.23199856052e-54
7.23201019894e-54
7.23264459395e-54
7.26731970438e-54
7.68253594787e-54
0.00298225398697
0.231547037542
0.215220972539
0.163647720705
0.124890238948
0.104389262695
0.095435224072
0.0920599444218
0.0909092671895
0.0905211003093
0.0903227944227
0.0901789790945
0.0900542515346
0.0899390158464
0.0898291468755
0.0897223266759
0.0896170645282
0.0895118895328
0.0894056004328
0.0892971394085
0.0891854297613
0.0890691170771
0.0889687967072
0.0888417645059
0.088709038188
0.0885696661074
0.0884234296182
0.0882701518642
0.0881100187594
0.0879438350714
0.0877720134798
0.0875957118662
0.0874157965289
0.0872338426969
0.0870508314342
0.0868692542162
0.0866913548867
0.0865199855035
0.0863571843574
0.086205001551
0.086065593445
0.0859410598203
0.0858335597308
0.0857449093809
0.0856764919454
0.0856290613975
0.0855263659018
7.23199834195e-54
7.23199834197e-54
7.23199834198e-54
7.23199834199e-54
7.231998342e-54
7.23199834201e-54
7.23199834203e-54
7.23199834204e-54
7.23199834205e-54
7.23199834206e-54
7.23199834207e-54
7.23199834208e-54
7.23199834209e-54
7.23199834211e-54
7.23199834212e-54
7.23199834213e-54
7.23199834247e-54
7.23199836132e-54
7.23199944573e-54
7.23205974061e-54
7.2354556049e-54
7.31254975115e-54
7.60825174666e-19
0.13631187042
0.23203444633
0.194467901913
0.145295971862
0.113696863827
0.0985819554051
0.092434723492
0.0903049995717
0.089666974809
0.0894193601687
0.089284339961
0.0891686258488
0.089056390124
0.088944161335
0.0888305477811
0.0887154572853
0.0885769910132
0.088456768784
0.0883326968382
0.0882047608
0.0880724698133
0.0879348617756
0.0877917767326
0.0876430550544
0.0874884876287
0.0873282062655
0.0871618395355
0.0869896797952
0.086811456879
0.0866284376536
0.0864414657112
0.0862520490071
0.0860609780595
0.0858697290043
0.0856792553474
0.0854922815538
0.085310891722
0.0851376662044
0.0849742185069
0.0848226182199
0.0846844528899
0.0845618857604
0.0844567998087
0.0843706357782
0.0843044689976
0.0842589136564
0.0841744121758
7.23199833731e-54
7.23199833732e-54
7.23199833732e-54
7.23199833733e-54
7.23199833734e-54
7.23199833734e-54
7.23199833735e-54
7.23199833736e-54
7.23199833737e-54
7.23199833737e-54
7.23199833738e-54
7.23199833739e-54
7.23199833739e-54
7.2319983374e-54
7.23199833741e-54
7.23199833745e-54
7.23199833932e-54
7.23199844666e-54
7.23200462569e-54
7.23234552357e-54
7.25142563091e-54
7.51071307104e-54
1.96011589397e-06
0.231104715865
0.224272312793
0.171892897667
0.128974749875
0.105169411968
0.0946205449421
0.0906789868018
0.0894480814997
0.0890877350822
0.0889534103764
0.0888610599611
0.0887747453346
0.0886873175384
0.0885755792291
0.088480913696
0.0883814331852
0.088277302633
0.0881681727447
0.0880537845437
0.0879332208944
0.08780669978
0.0876738904835
0.0875345632844
0.0873889948777
0.087236687528
0.0870777127438
0.0869118947665
0.0867397344916
0.0865622306095
0.0863804637709
0.0861955111356
0.0860082598299
0.0858196317014
0.0856312212879
0.0854451618704
0.0852636133288
0.0850884575573
0.0849214096383
0.0847642082999
0.0846185367204
0.0844867187293
0.0843704248227
0.0842710963211
0.0841901001867
0.0841280735612
0.0840854615273
0.0840133056198
7.23199833446e-54
7.23199833447e-54
7.23199833448e-54
7.23199833448e-54
7.23199833449e-54
7.23199833449e-54
7.2319983345e-54
7.2319983345e-54
7.23199833451e-54
7.23199833451e-54
7.23199833452e-54
7.23199833452e-54
7.23199833453e-54
7.23199833453e-54
7.23199833454e-54
7.23199833467e-54
7.23199834217e-54
7.23199877845e-54
7.23202362777e-54
7.23342229165e-54
7.28401526722e-54
2.05983634123e-19
0.0407205984722
0.23180895549
0.205326818236
0.153693281154
0.118057849741
0.100198195051
0.0927522597665
0.0901696655998
0.0894002265617
0.0891477923743
0.0890302122461
0.0889354396928
0.0888439730705
0.0887519451387
0.0886366222471
0.0885391801957
0.0884374979921
0.0883314107947
0.0882204333757
0.0881040885728
0.0879815992481
0.0878526548512
0.0877171774811
0.0875749608421
0.087426259185
0.0872709212649
0.08710893963
0.0869404135779
0.0867655368349
0.0865857432074
0.0864020656036
0.0862158915108
0.086027906507
0.0858393376464
0.0856515480276
0.0854669952737
0.0852876309833
0.0851153777573
0.0849514849046
0.0847978302938
0.0846557113096
0.0845275609433
0.0844149958988
0.0843192014156
0.0842410060046
0.084181255862
0.0841401797038
0.0840748733043
7.23199833254e-54
7.23199833254e-54
7.23199833255e-54
7.23199833255e-54
7.23199833255e-54
7.23199833256e-54
7.23199833256e-54
7.23199833257e-54
7.23199833257e-54
7.23199833257e-54
7.23199833258e-54
7.23199833258e-54
7.23199833259e-54
7.23199833259e-54
7.2319983326e-54
7.23199833312e-54
7.23199836268e-54
7.23200007676e-54
7.23209587868e-54
7.23754513998e-54
7.34238265109e-54
1.31682430664e-18
0.208858032591
0.232123557606
0.188048710248
0.140374204108
0.111160666209
0.097558706903
0.0921730416019
0.0903847651699
0.0898518580144
0.0896298929406
0.0894972220025
0.0893789048649
0.0892638596407
0.0891492316485
0.0890339240445
0.0889175792316
0.0887776957447
0.0886555884098
0.0885289815173
0.0883976706861
0.0882612341771
0.0881192487829
0.0879710570121
0.0878163347164
0.087655339362
0.0874881561371
0.0873153173767
0.087136731916
0.0869530892871
0.0867645596619
0.0865729136703
0.0863791515441
0.0861848049073
0.0859909355111
0.0857992198822
0.0856113376643
0.0854289380885
0.0852750968613
0.0851092304908
0.0849544902622
0.0848124151728
0.0846849395052
0.0845734562036
0.0844788287306
0.0844015679294
0.0843421457448
0.084301038675
0.0842391592756
7.23199833115e-54
7.23199833116e-54
7.23199833116e-54
7.23199833116e-54
7.23199833117e-54
7.23199833117e-54
7.23199833117e-54
7.23199833118e-54
7.23199833118e-54
7.23199833118e-54
7.23199833118e-54
7.23199833119e-54
7.23199833119e-54
7.23199833119e-54
7.23199833123e-54
7.23199833298e-54
7.23199843381e-54
7.23200424785e-54
7.2323257764e-54
7.25036467043e-54
7.49993107076e-54
2.67418894027e-07
0.231043173865
0.225169175051
0.173362332838
0.130649952989
0.106874615424
0.0963021326276
0.0923061982102
0.091024348729
0.0906029985815
0.0904000948733
0.0902413647876
0.0900931925959
0.0899485306342
0.0898049003772
0.0896612943143
0.0895164945196
0.0893699245524
0.0892210707976
0.0890692045632
0.0889139041645
0.0887542041197
0.0885904856277
0.0884008787925
0.0882265358554
0.0880671729432
0.0878809384681
0.0876899764485
0.0874941376162
0.0872945969472
0.0870919556176
0.0868871685125
0.0866806017508
0.0864740514831
0.0862693373976
0.0860683542257
0.0858727812435
0.0856837245775
0.0855028558079
0.085331823972
0.0851724795733
0.0850267281621
0.0848961358995
0.0847821434415
0.0846855679319
0.0846068748868
0.0845466052123
0.0845051019364
0.0844455306885
7.23199833011e-54
7.23199833012e-54
7.23199833012e-54
7.23199833012e-54
7.23199833012e-54
7.23199833013e-54
7.23199833013e-54
7.23199833013e-54
7.23199833014e-54
7.23199833014e-54
7.23199833014e-54
7.23199833014e-54
7.23199833015e-54
7.23199833015e-54
7.23199833022e-54
7.23199833431e-54
7.23199856763e-54
7.23201184843e-54
7.23273733216e-54
7.27220745173e-54
7.73987610779e-54
0.0088154886428
0.231627794491
0.212680483747
0.161253356644
0.123735288091
0.104331187049
0.0960273915405
0.0930063346128
0.0920301148699
0.0916482291313
0.0914205325809
0.0912238415047
0.0910366592427
0.0908535486938
0.0906727524858
0.090492532663
0.0903126645466
0.0901324482372
0.0899516726247
0.0897689320086
0.0895834972691
0.0893941870687
0.0892013048023
0.0890046838116
0.0888041795742
0.0885993292326
0.0883901242215
0.088176767882
0.087959687983
0.0877387924143
0.0875159961116
0.0872926804875
0.0870697975314
0.0868482107447
0.0866287032074
0.0864140419655
0.0862063410749
0.0860070089446
0.0858172363525
0.0856377891881
0.0854700404816
0.0853394848876
0.0852030242867
0.0850842056749
0.0849836467686
0.0849017324658
0.0848388114847
0.0847953498901
0.0847360533303
7.23199832931e-54
7.23199832931e-54
7.23199832932e-54
7.23199832932e-54
7.23199832932e-54
7.23199832932e-54
7.23199832933e-54
7.23199832933e-54
7.23199832933e-54
7.23199832933e-54
7.23199832933e-54
7.23199832934e-54
7.23199832934e-54
7.23199832935e-54
7.23199832957e-54
7.23199834253e-54
7.23199909165e-54
7.23204114212e-54
7.23440797606e-54
7.29890782131e-54
4.75636679226e-19
0.0873380613708
0.231929897762
0.200377728009
0.151298972344
0.118872497321
0.102988151757
0.0964101870157
0.0940665938391
0.0932874504452
0.0929082134964
0.0926442506437
0.0924038178005
0.0921719953006
0.0919451820804
0.0917219357991
0.0915003348726
0.0912804371551
0.0910617972466
0.0908434466841
0.0906242683669
0.0904029181526
0.0901795435692
0.089954349901
0.0897266170841
0.0894955740573
0.0892607885307
0.0890228871305
0.0887827098162
0.0885400513943
0.0882956586828
0.0880501979031
0.0878259283738
0.0875814157335
0.0873402861883
0.087103882788
0.0868734206486
0.0866501122286
0.0864361581768
0.0862332652049
0.0860433690874
0.0858672877647
0.0857067595985
0.0855633344301
0.0854384122737
0.085332768082
0.0852469043896
0.0851812554091
0.085136201808
0.0850775320698
7.23199832868e-54
7.23199832868e-54
7.23199832868e-54
7.23199832868e-54
7.23199832868e-54
7.23199832869e-54
7.23199832869e-54
7.23199832869e-54
7.23199832869e-54
7.23199832869e-54
7.2319983287e-54
7.2319983287e-54
7.2319983287e-54
7.23199832871e-54
7.23199832931e-54
7.23199836406e-54
7.23200037635e-54
7.23211274741e-54
7.23849129535e-54
7.35632369623e-54
1.53796257521e-18
0.220251272423
0.232115830768
0.188617383026
0.142962228282
0.115369771232
0.102476597804
0.0972575727097
0.0954248460015
0.0947454370984
0.0943712232263
0.0940411143329
0.0937516012376
0.0934710649403
0.0931962560608
0.0929258247274
0.0926597524017
0.0923971769641
0.0921366161718
0.0918772457761
0.0916180702083
0.0913575540011
0.0911173772779
0.0908553926766
0.0905922044704
0.0903261946281
0.0900584816735
0.0897902138996
0.0895202372589
0.0892489303706
0.0889772398223
0.0887052139835
0.0884353227715
0.0881694918705
0.0879079058681
0.0876507990727
0.0874005532329
0.0871600726423
0.0869311648799
0.0867142737098
0.0865320771947
0.086343849861
0.0861730754114
0.0860208816635
0.0858885981
0.0857767516066
0.0856858202107
0.085616303004
0.0855685547803
0.0855098774188
7.23199832816e-54
7.23199832817e-54
7.23199832817e-54
7.23199832817e-54
7.23199832817e-54
7.23199832817e-54
7.23199832817e-54
7.23199832818e-54
7.23199832818e-54
7.23199832818e-54
7.23199832818e-54
7.23199832818e-54
7.23199832819e-54
7.23199832822e-54
7.2319983299e-54
7.23199842623e-54
7.23200394796e-54
7.23230780008e-54
7.24923532005e-54
7.48866402785e-54
1.88391225427e-07
0.230920286529
0.227061330978
0.177444552684
0.136199622804
0.113010545182
0.102524363456
0.0984212591179
0.096957047365
0.0963559566903
0.0959543425976
0.0955986669658
0.0952592064387
0.0949291036182
0.0946055748972
0.0942876072539
0.0939737515079
0.0936645615688
0.0933591235028
0.093055029638
0.0927524138376
0.0924517547388
0.0921514799241
0.0918509813628
0.0915497372996
0.0912472386447
0.0909449513017
0.0906429055713
0.0903397048646
0.0900362026495
0.0897339832014
0.0894551931218
0.089159003693
0.0888680453739
0.0885825431729
0.0883040164912
0.0880333783046
0.0877738489819
0.087527562693
0.0872948560606
0.0870764515105
0.0868745794536
0.0866920160178
0.0865307048325
0.0863906355344
0.0862716838839
0.0861744769245
0.0861004368314
0.0860503928034
0.0859926615228
7.23199832774e-54
7.23199832774e-54
7.23199832775e-54
7.23199832775e-54
7.23199832775e-54
7.23199832775e-54
7.23199832775e-54
7.23199832775e-54
7.23199832776e-54
7.23199832776e-54
7.23199832776e-54
7.23199832776e-54
7.23199832776e-54
7.23199832783e-54
7.23199833167e-54
7.23199854946e-54
7.2320108935e-54
7.23268277385e-54
7.26910123422e-54
7.70211170874e-54
0.00325954328914
0.231535709311
0.216540246474
0.167417478035
0.130871699536
0.111646582464
0.103191861334
0.0999208680703
0.0987152083849
0.0981283538378
0.0976829115136
0.097273976046
0.0968791779921
0.0964934629083
0.0961173587891
0.0957476259016
0.0953837360131
0.09502654092
0.0946736908206
0.0943245837636
0.0939770162813
0.0936324069477
0.0932901485519
0.0929473304028
0.0926282614786
0.092286654731
0.0919472426476
0.0916095351087
0.0912717719409
0.0909358746624
0.0906032236997
0.0902741342699
0.0899500326143
0.0896309181306
0.0893191887588
0.0890166810688
0.0887475732575
0.0884668980261
0.0882009703241
0.0879512560441
0.0877183363566
0.087503778998
0.0873094827119
0.0871370495194
0.0869868868496
0.0868600326159
0.0867570728669
0.0866786417596
0.0866252080549
0.0865661730217
7.23199832739e-54
7.23199832739e-54
7.23199832739e-54
7.2319983274e-54
7.2319983274e-54
7.2319983274e-54
7.2319983274e-54
7.2319983274e-54
7.2319983274e-54
7.23199832741e-54
7.23199832741e-54
7.23199832741e-54
7.23199832741e-54
7.23199832761e-54
7.23199833889e-54
7.23199898459e-54
7.23203502127e-54
7.23403837105e-54
7.29453126031e-54
3.56709210118e-19
0.064540695463
0.23185554329
0.205190916778
0.158245863086
0.126829761915
0.111023109828
0.10428601523
0.101703730055
0.100649462608
0.100049574841
0.0995477624288
0.0990754606241
0.0986203299291
0.0981755094764
0.0977423755301
0.0973188125537
0.0969029304485
0.0964923410159
0.0961098681645
0.0957118642036
0.0953186533006
0.0949276560587
0.0945407134856
0.0941563231037
0.0937731086551
0.0933933470906
0.0930161509141
0.0926415849882
0.09226790695
0.0919203583958
0.0915534678659
0.091193091286
0.0908393449978
0.0904933200688
0.0901556281217
0.0898280329976
0.0895135223353
0.0892130175265
0.0889274386195
0.0886821943056
0.0884316472218
0.0882020290481
0.0879947356461
0.0878107936083
0.0876510327358
0.08751627086
0.0874072536841
0.0873245545785
0.0872683785068
0.0872095021992
7.2319983271e-54
7.2319983271e-54
7.2319983271e-54
7.2319983271e-54
7.2319983271e-54
7.2319983271e-54
7.2319983271e-54
7.23199832711e-54
7.23199832711e-54
7.23199832711e-54
7.23199832711e-54
7.23199832711e-54
7.23199832712e-54
7.23199832768e-54
7.23199835959e-54
7.232000176e-54
7.23210005012e-54
7.23765876419e-54
7.34490478991e-54
1.26642867997e-18
0.200493972561
0.232104300527
0.19363194118
0.150261594093
0.123784638572
0.111058874472
0.1057384687
0.103665537469
0.102726707974
0.102090632999
0.101527286606
0.100990341637
0.100469983385
0.0999853002391
0.0994910087899
0.0990075236078
0.0985355709342
0.0980726155181
0.0976162447095
0.0971677702993
0.0967252594522
0.0962873910568
0.0958548540684
0.0954470516971
0.0950222489326
0.094601299091
0.0941828238809
0.0937696948175
0.0933610309287
0.092956851084
0.0925566361571
0.0921872506113
0.0918022084613
0.09142601801
0.091061810935
0.0907101229128
0.0903722059046
0.0900491004538
0.0897429352241
0.0894566230578
0.0891905461489
0.0889695636826
0.088748592838
0.0885527488522
0.0883826653641
0.0882395393748
0.0881240048041
0.0880363307814
0.0879764307248
0.0879160156342
7.23199832684e-54
7.23199832684e-54
7.23199832685e-54
7.23199832685e-54
7.23199832685e-54
7.23199832685e-54
7.23199832685e-54
7.23199832685e-54
7.23199832685e-54
7.23199832685e-54
7.23199832686e-54
7.23199832686e-54
7.23199832689e-54
7.23199832866e-54
7.2319984291e-54
7.23200411759e-54
7.23231379123e-54
7.24932780713e-54
7.49101115371e-54
1.61463616792e-07
0.230834167835
0.228643451971
0.182168186031
0.143542518935
0.121710378407
0.111630657006
0.107448876899
0.10578627997
0.104899322017
0.104221279805
0.103597466346
0.10301491331
0.102430736203
0.101861276751
0.101307288427
0.100764372543
0.10023496426
0.0997159862758
0.0992271972091
0.0987251196807
0.0982312558825
0.0977448145856
0.097263864976
0.0967903300604
0.0963217984917
0.0958793792168
0.0954211504443
0.0949682575679
0.0945207159203
0.0940811463753
0.0936488245215
0.0932236619698
0.0928072394613
0.0924257011118
0.0920336910818
0.0916559758503
0.0912931514913
0.0909483973622
0.0906226091588
0.0903173664201
0.0900343215833
0.0897749625803
0.089540498659
0.0893576489743
0.0891767627973
0.0890252511454
0.0889024797726
0.0888092248429
0.0887456990025
0.0886848133542
7.23199832663e-54
7.23199832663e-54
7.23199832663e-54
7.23199832663e-54
7.23199832663e-54
7.23199832663e-54
7.23199832663e-54
7.23199832663e-54
7.23199832663e-54
7.23199832664e-54
7.23199832664e-54
7.23199832664e-54
7.23199832672e-54
7.23199833138e-54
7.23199859135e-54
7.23201305092e-54
7.23278608176e-54
7.27365320292e-54
7.7531434416e-54
0.00656683469443
0.231555398349
0.21741049795
0.171557450715
0.138216169071
0.120604168085
0.112713786776
0.109453730311
0.108055265539
0.107190254157
0.106457146129
0.105763777835
0.105095761545
0.104445014597
0.10381274756
0.103215688147
0.102614033104
0.102025769019
0.10144936354
0.100885140029
0.100331013741
0.0997856623844
0.0992702836351
0.0987419892076
0.0982212347239
0.0977063821259
0.0972000251961
0.0967000902436
0.0962288202812
0.0957436847099
0.0952678110594
0.0948002484757
0.0943420767621
0.0938962121891
0.0934622437883
0.0930655752622
0.0926614344959
0.0922743589468
0.0919072990361
0.0915609727031
0.0912370942703
0.0909376854629
0.09066432091
0.0904166916283
0.0902206673674
0.0900296315611
0.0898690390067
0.0897394621887
0.0896413694417
0.0895746404344
0.0895135917248
7.23199832644e-54
7.23199832644e-54
7.23199832644e-54
7.23199832644e-54
7.23199832644e-54
7.23199832644e-54
7.23199832644e-54
7.23199832644e-54
7.23199832644e-54
7.23199832645e-54
7.23199832645e-54
7.23199832645e-54
7.23199832676e-54
7.23199834425e-54
7.23199932875e-54
7.23205318143e-54
7.2350032919e-54
7.30927330884e-54
5.7391573427e-19
0.0981664912605
0.231908767632
0.204863687636
0.162022828279
0.13423119552
0.12035367356
0.114247750705
0.111699726755
0.110446100696
0.109551950349
0.10874901158
0.107983806019
0.107242227344
0.106545140295
0.105845515645
0.105166195118
0.104502959901
0.103855494345
0.103243129971
0.102622953333
0.102014006913
0.101417927064
0.100829951019
0.100276420597
0.0997083539251
0.0991486986686
0.0985992940682
0.0980576595679
0.0975234911413
0.0970228658358
0.0965093775572
0.0960072831613
0.0955154705178
0.0950382576368
0.0945751401023
0.094150911793
0.0937211994972
0.0933113136617
0.0929212304259
0.0925538484206
0.0922116061872
0.0918952763862
0.0916064399262
0.0913455976014
0.0911394157999
0.0909386088243
0.0907693109194
0.0906324259142
0.0905283468285
0.0904572362111
0.0903947934641
7.23199832627e-54
7.23199832627e-54
7.23199832627e-54
7.23199832627e-54
7.23199832627e-54
7.23199832627e-54
7.23199832628e-54
7.23199832628e-54
7.23199832628e-54
7.23199832628e-54
7.23199832628e-54
7.2319983263e-54
7.23199832745e-54
7.23199839207e-54
7.23200200401e-54
7.23219652026e-54
7.24275817846e-54
7.41483840565e-54
4.68298715132e-11
0.229193408511
0.232024140193
0.191982447712
0.153890765638
0.131489632431
0.120795451739
0.116125214222
0.114075136645
0.112913306117
0.111972910546
0.111098087472
0.110279120848
0.109466725067
0.108678157786
0.107912034408
0.10718745786
0.10646041036
0.105753931629
0.105061206176
0.104406777965
0.103745218971
0.103097400371
0.102459650307
0.101834755033
0.101243145454
0.100637786633
0.100044942854
0.0994615949015
0.0988881527075
0.0983506204759
0.0977996846256
0.0972630455185
0.0967391940824
0.0962296870878
0.0957370346371
0.095287237762
0.0948317396881
0.0943968227492
0.0939849760554
0.0935984450448
0.0932377461538
0.0929046886688
0.0926001649749
0.0923509781756
0.0921080284272
0.0918979962846
0.0917205805142
0.0915771208835
0.0914679354689
0.0913930057219
0.0913297610329
7.23199832612e-54
7.23199832612e-54
7.23199832612e-54
7.23199832613e-54
7.23199832613e-54
7.23199832613e-54
7.23199832613e-54
7.23199832613e-54
7.23199832613e-54
7.23199832613e-54
7.23199832613e-54
7.23199832621e-54
7.23199833022e-54
7.23199855216e-54
7.23201077992e-54
7.23265943514e-54
7.26680900595e-54
7.67952986521e-54
0.000811193860605
0.231382960372
0.22277885073
0.179724992329
0.147454724839
0.129913430763
0.121799986961
0.118267804297
0.11655619672
0.115419027832
0.114442612715
0.1134982109
0.112587523116
0.111704059996
0.110867532321
0.110035243127
0.109226321402
0.108459616069
0.107690223662
0.106942028179
0.106208510375
0.105515078388
0.104813076286
0.104126663469
0.103453955371
0.102815791031
0.102165900211
0.101530021262
0.100906567715
0.100293748551
0.0997187991394
0.0991331342509
0.0985609069019
0.0980054156059
0.0974662989404
0.0969701385526
0.0964670247054
0.0959861277585
0.0955288840235
0.0950961412568
0.0946894170718
0.0943099137862
0.0939848458213
0.0936651220736
0.0933781643805
0.0931244688128
0.092904939003
0.0927201670329
0.0925706824427
0.0924567743666
0.0923784894689
0.0923146560925
7.23199832599e-54
7.23199832599e-54
7.23199832599e-54
7.23199832599e-54
7.231998326e-54
7.231998326e-54
7.231998326e-54
7.231998326e-54
7.231998326e-54
7.231998326e-54
7.23199832601e-54
7.23199832632e-54
7.23199834381e-54
7.23199931377e-54
7.23205168842e-54
7.2348736545e-54
7.30847982218e-54
5.09228784636e-19
0.0838676009273
0.231852787916
0.209017444661
0.168927176369
0.142742096236
0.129460729302
0.123389372724
0.120637654757
0.119144418737
0.117983856563
0.116918511846
0.115899401847
0.114935399282
0.113982528257
0.11305764061
0.112181038747
0.111308897501
0.110459994504
0.10965386034
0.10884799028
0.108060273727
0.107291456607
0.106562005531
0.105823748427
0.105102525478
0.104418665481
0.103726196801
0.10304716515
0.102382583291
0.101732118089
0.101119430727
0.100498824432
0.099895241612
0.099308703738
0.0987396240978
0.0982159132615
0.0976877346931
0.0971814565472
0.0967016907591
0.0962482090794
0.0958220324989
0.0954522197637
0.0950858426466
0.0947518268049
0.0944511906907
0.0941862468954
0.0939572678203
0.0937645326584
0.0936083531328
0.0934892160571
0.0934071382531
0.0933425664767
7.23199832587e-54
7.23199832588e-54
7.23199832588e-54
7.23199832588e-54
7.23199832588e-54
7.23199832588e-54
7.23199832588e-54
7.23199832588e-54
7.23199832588e-54
7.23199832588e-54
7.23199832591e-54
7.23199832736e-54
7.23199840709e-54
7.23200277659e-54
7.23223380993e-54
7.24451920368e-54
7.4378669493e-54
6.67610229974e-11
0.229644174933
0.232034947122
0.194742515245
0.160016314547
0.139710022884
0.129856393344
0.125356912611
0.123158461858
0.121750182644
0.120542303436
0.11942521977
0.118331354646
0.11727402369
0.116270975328
0.115277769577
0.114336510396
0.113400910893
0.11249370191
0.111630202433
0.110769065965
0.10992831774
0.109107369975
0.10832730224
0.107543205475
0.106773895283
0.106047138053
0.10530982679
0.104590765678
0.10388638426
0.103222774681
0.102548728606
0.101895058806
0.101259221714
0.100641801398
0.100069416468
0.0994937733088
0.098941363096
0.0984136474885
0.0979109651185
0.0974646294334
0.0970185138112
0.0966054695961
0.096224773377
0.0958778740838
0.0955659864
0.0952910337702
0.0950534962324
0.0948527666489
0.094718848701
0.0945935692605
0.0945075858204
0.0944424762362
7.23199832577e-54
7.23199832577e-54
7.23199832577e-54
7.23199832577e-54
7.23199832577e-54
7.23199832577e-54
7.23199832577e-54
7.23199832578e-54
7.23199832578e-54
7.23199832578e-54
7.23199832589e-54
7.23199833192e-54
7.23199865747e-54
7.23201613999e-54
7.23292119378e-54
7.27877805558e-54
1.3292900203e-20
0.00764102589781
0.231512081479
0.221345311026
0.181717731381
0.153325171224
0.138150964614
0.13094985908
0.127571646316
0.125737330071
0.12434845811
0.123101526696
0.121893907947
0.12074858738
0.119623319834
0.118552058089
0.117496357336
0.116470909223
0.115496531522
0.114529464193
0.113610657365
0.112693559228
0.111801161489
0.110953296268
0.110101579652
0.109270874344
0.108459287819
0.107687384817
0.106910807178
0.106151948656
0.105434608616
0.104709873114
0.104004068605
0.103315358505
0.102647765773
0.102027570632
0.1014021769
0.100801269417
0.100222987719
0.0997014124033
0.0991787367364
0.0986851732378
0.0982233096048
0.0977946934223
0.097400044447
0.0970399481837
0.0967458393017
0.0964599910043
0.0962134643408
0.0960057463349
0.0958373022772
0.0957084343999
0.0956191613125
0.0955533015158
7.23199832567e-54
7.23199832567e-54
7.23199832568e-54
7.23199832568e-54
7.23199832568e-54
7.23199832568e-54
7.23199832568e-54
7.23199832568e-54
7.23199832568e-54
7.23199832569e-54
7.23199832637e-54
7.23199836328e-54
7.23200036464e-54
7.23210561911e-54
7.2376588411e-54
7.34719701236e-54
1.08655530568e-18
0.16615899763
0.231982261656
0.205825766511
0.170712724842
0.148845238771
0.137850171169
0.132630967897
0.130027919078
0.128360822514
0.126943998857
0.125614051179
0.124355191749
0.123140821348
0.121948470267
0.120793999172
0.119695794054
0.118610106049
0.117578734688
0.11655531345
0.115583619051
0.11461402196
0.113671308859
0.112773890292
0.111877057556
0.111001360057
0.110170944499
0.1093340444
0.10851891333
0.10772262489
0.106968240334
0.106209827217
0.10547163123
0.104780624965
0.104083360235
0.103409430665
0.102757172253
0.102130768211
0.101560190746
0.10098780162
0.100447076056
0.0999370436744
0.0994588922587
0.0990435021552
0.0986345298187
0.0982635187198
0.0979305926256
0.0976365105581
0.0973817575369
0.0971671017221
0.0969929080226
0.0968595437022
0.096766895093
0.0967006342972
7.23199832559e-54
7.23199832559e-54
7.23199832559e-54
7.23199832559e-54
7.23199832559e-54
7.23199832559e-54
7.23199832559e-54
7.23199832559e-54
7.23199832559e-54
7.23199832567e-54
7.23199832968e-54
7.23199854511e-54
7.23201008052e-54
7.23260626517e-54
7.26307096823e-54
7.64181637391e-54
6.4859843183e-05
0.231158354837
0.228496027597
0.190927181421
0.162237468533
0.146281145497
0.138460188119
0.134681031984
0.132556384883
0.130943208565
0.129496241549
0.128098493476
0.12677197679
0.12547306602
0.124235860663
0.123019765917
0.12186383475
0.120721716424
0.119636111043
0.11855942059
0.117537046443
0.116520312524
0.115528709379
0.114587605846
0.113646315134
0.112752865533
0.111856055548
0.110979809523
0.110126643004
0.109320666013
0.108509184074
0.10771851463
0.106976252713
0.106228959883
0.105505702782
0.104806026807
0.104159826396
0.103509147479
0.102889051416
0.102298769775
0.101739310876
0.101243463893
0.100749882405
0.100292534817
0.0998716078806
0.099489617406
0.0991471316643
0.0988436727831
0.0986119030598
0.098389909235
0.0982099790178
0.0980718575511
0.0979755368608
0.0979085540162
7.23199832551e-54
7.23199832551e-54
7.23199832551e-54
7.23199832551e-54
7.23199832551e-54
7.23199832551e-54
7.23199832551e-54
7.23199832551e-54
7.23199832552e-54
7.23199832603e-54
7.23199835341e-54
7.23199981909e-54
7.23207618533e-54
7.23604481402e-54
7.32635824305e-54
6.96203092122e-19
0.106190266025
0.23185371198
0.212488267752
0.178427771539
0.15664359503
0.145364350325
0.139857542942
0.136996441136
0.135091284506
0.133489769422
0.131986215241
0.130523995643
0.129132933422
0.127769706727
0.126473550672
0.125199000617
0.12398758027
0.122815015277
0.121657796486
0.120531195175
0.119462868441
0.11839814853
0.117387665999
0.116380186022
0.115398378312
0.114465688977
0.113531074011
0.112646761351
0.111758139151
0.110892668846
0.110047301696
0.109254460909
0.108456119092
0.107682927727
0.106963120504
0.106239430392
0.105542753005
0.104873953237
0.104265749251
0.103657582595
0.103082307561
0.10254092234
0.102034715053
0.101564416365
0.101165788535
0.100773338632
0.10042161823
0.100110615638
0.0998413545399
0.0996144385754
0.0994300132389
0.0992878576082
0.0991880789462
0.099120026245
7.23199832544e-54
7.23199832544e-54
7.23199832544e-54
7.23199832544e-54
7.23199832544e-54
7.23199832544e-54
7.23199832544e-54
7.23199832544e-54
7.23199832551e-54
7.23199832916e-54
7.23199852253e-54
7.23200874452e-54
7.23253098075e-54
7.25889473172e-54
7.59932119666e-54
1.00347080318e-05
0.230939415724
0.23092873918
0.196473547597
0.168971046048
0.153430964549
0.145661159386
0.141731507304
0.139407977407
0.137597030488
0.135958653536
0.134376233962
0.132871694214
0.131420940015
0.130003147389
0.128651514017
0.127345147263
0.126060280723
0.124838801068
0.123630855373
0.122485668308
0.121347107547
0.120267763503
0.119191254603
0.1181452312
0.117151331641
0.116157282181
0.11521550105
0.114270802982
0.113350994112
0.112483537543
0.111608318027
0.11076069429
0.109937279542
0.109169823884
0.108396823232
0.107651232088
0.106965176347
0.106278009857
0.105622286507
0.10499952749
0.104409308651
0.103887129
0.103369542992
0.102890407404
0.102449942568
0.102049802909
0.101689382022
0.1014041145
0.101128543876
0.100896553737
0.100707908761
0.100562299324
0.100459246633
0.100390540075
7.23199832537e-54
7.23199832537e-54
7.23199832537e-54
7.23199832537e-54
7.23199832537e-54
7.23199832537e-54
7.23199832537e-54
7.23199832539e-54
7.23199832597e-54
7.231998357e-54
7.2319999899e-54
7.23208368228e-54
7.23635519266e-54
7.33133759606e-54
7.22371282572e-19
0.105676774743
0.231828282435
0.214894698133
0.183116560902
0.162815660816
0.152188284289
0.146814925669
0.143864678447
0.141802047001
0.140012947642
0.13832489754
0.136706453897
0.13512794434
0.133625427438
0.132174527293
0.130752435773
0.129400218343
0.128071013069
0.12680365832
0.125578457645
0.124363957339
0.123212547456
0.122069081692
0.120955457146
0.119899641238
0.118845180974
0.117847134462
0.116847211857
0.115873101972
0.114953059274
0.11402970387
0.113131559395
0.112289183909
0.111442071151
0.110621934121
0.109862625475
0.109098197581
0.108364762299