/*--------------------------------*- C++ -*----------------------------------*\
| =========                 |                                                 |
| \\      /  F ield         | foam-extend: Open Source CFD                    |
|  \\    /   O peration     | Version:     4.1                                |
|   \\  /    A nd           | Web:         http://www.foam-extend.org         |
|    \\/     M anipulation  |                                                 |
\*---------------------------------------------------------------------------*/
FoamFile
{
    version     2.0;
    format      ascii;
    class       volScalarField;
    location    "0.0008";
    object      O2;
}
// * * * * * * * * * * * * * * * * * * * * * * * * * * * * * * * * * * * * * //

dimensions      [0 0 0 0 0 0 0];

internalField   nonuniform List<scalar> 
8400
(
0.232918
0.232918
0.232918
0.232918
0.232918
0.232918
0.232918
0.232918
0.232918
0.232918
0.232918
0.232918
0.232918
0.232918
0.232918
0.232918
0.232918
0.232918
0.232918
0.232918
0.232918
0.232918
0.232918
0.225189983831
2.55128075234e-05
2.64831367842e-07
9.60909353084e-08
6.09180676854e-08
4.96938951172e-08
4.62723713756e-08
4.51421575707e-08
4.46146378048e-08
4.43270973662e-08
4.4093807347e-08
4.38872622998e-08
4.36978951943e-08
4.35224707232e-08
4.3356294751e-08
4.31962828789e-08
4.3040297213e-08
4.28862025158e-08
4.27327605445e-08
4.25783723479e-08
4.24209536273e-08
4.22591180888e-08
4.21180275287e-08
4.19447305888e-08
4.17651962872e-08
4.15777609801e-08
4.13821566528e-08
4.11787096799e-08
4.09679143187e-08
4.07496103912e-08
4.05246134043e-08
4.0296815771e-08
4.00651596996e-08
3.98314630532e-08
3.95990302449e-08
3.93693258415e-08
3.91448663908e-08
3.89307021255e-08
3.87281061913e-08
3.85392956714e-08
3.83674356086e-08
3.82159462186e-08
3.80859667997e-08
3.79795985734e-08
3.78985074179e-08
3.78438889708e-08
3.77990316579e-08
0.232918
0.232918
0.232918
0.232918
0.232918
0.232918
0.232918
0.232918
0.232918
0.232918
0.232918
0.232918
0.232918
0.232918
0.232918
0.232918
0.232918
0.232918
0.232918
0.232918
0.232918
0.232918
0.232917550594
0.0822498794028
7.17769918407e-06
1.53286466117e-07
7.58937066348e-08
5.3241720311e-08
4.62746212264e-08
4.42482156547e-08
4.36068916844e-08
4.33859141805e-08
4.32393947511e-08
4.31350757461e-08
4.30317584925e-08
4.29264597792e-08
4.28195247594e-08
4.27085833148e-08
4.25931721841e-08
4.24459922749e-08
4.23210389749e-08
4.21897014729e-08
4.20513297199e-08
4.19052619164e-08
4.17517848565e-08
4.15897021707e-08
4.14184415519e-08
4.12381375918e-08
4.10506089161e-08
4.08536782113e-08
4.06477059592e-08
4.04344845674e-08
4.02138634836e-08
3.99868843763e-08
3.97579857494e-08
3.9526196278e-08
3.92933967304e-08
3.90630829565e-08
3.88364184074e-08
3.86163319495e-08
3.84078050161e-08
3.8210876754e-08
3.80281947865e-08
3.78629867466e-08
3.77171767251e-08
3.75924916972e-08
3.74907160184e-08
3.74132184124e-08
3.73609658416e-08
3.73200670901e-08
0.232918
0.232918
0.232918
0.232918
0.232918
0.232918
0.232918
0.232918
0.232918
0.232918
0.232918
0.232918
0.232918
0.232918
0.232918
0.232918
0.232918
0.232918
0.232918
0.232918
0.232918
0.232918
0.232710475701
5.70132746117e-05
4.2839909409e-07
1.06213464182e-07
6.24361974358e-08
4.85296857905e-08
4.43715169721e-08
4.32154222223e-08
4.28778801074e-08
4.27625630326e-08
4.27106856837e-08
4.26606834684e-08
4.26045678427e-08
4.25408425775e-08
4.24423277698e-08
4.23630259819e-08
4.2275055196e-08
4.21780926326e-08
4.20717224225e-08
4.19557611583e-08
4.18305937247e-08
4.16950851803e-08
4.15489455252e-08
4.13920389037e-08
4.12267303976e-08
4.10506577281e-08
4.08640532604e-08
4.06680248332e-08
4.04631627193e-08
4.02498187336e-08
4.00305359263e-08
3.98071571182e-08
3.95796151095e-08
3.93504456711e-08
3.91218300196e-08
3.88953455194e-08
3.8675044948e-08
3.84630958966e-08
3.82606886654e-08
3.80706507747e-08
3.78958359085e-08
3.77376814289e-08
3.75982555443e-08
3.74793598645e-08
3.73835667312e-08
3.73108634885e-08
3.72617814453e-08
3.72246004139e-08
0.232918
0.232918
0.232918
0.232918
0.232918
0.232918
0.232918
0.232918
0.232918
0.232918
0.232918
0.232918
0.232918
0.232918
0.232918
0.232918
0.232918
0.232918
0.232918
0.232918
0.232918
0.232917880117
0.180501131731
1.38395577017e-05
1.94382298619e-07
8.36830585731e-08
5.54225893291e-08
4.65114053512e-08
4.39227061322e-08
4.32027490531e-08
4.29729436166e-08
4.28666225069e-08
4.28056044982e-08
4.27456825753e-08
4.2680726768e-08
4.26094585549e-08
4.25044483306e-08
4.24184948374e-08
4.23250808423e-08
4.22227127554e-08
4.21108875301e-08
4.1989113014e-08
4.18575509138e-08
4.1715660165e-08
4.15628199495e-08
4.13988899643e-08
4.12256789347e-08
4.10425029339e-08
4.08489188531e-08
4.06458721998e-08
4.0434755621e-08
4.02158136093e-08
3.99910004272e-08
3.97636939595e-08
3.95331505817e-08
3.93017488701e-08
3.90722554233e-08
3.88459844202e-08
3.86261641151e-08
3.84162958798e-08
3.82166043106e-08
3.80294840861e-08
3.78581139254e-08
3.7703651058e-08
3.75678814932e-08
3.7452377164e-08
3.73583614065e-08
3.72876258495e-08
3.72398681633e-08
3.72047811211e-08
0.232918
0.232918
0.232918
0.232918
0.232918
0.232918
0.232918
0.232918
0.232918
0.232918
0.232918
0.232918
0.232918
0.232918
0.232918
0.232918
0.232918
0.232918
0.232918
0.232918
0.232918
0.232917211862
0.0143694765351
4.12395115474e-06
1.36581126437e-07
7.16580653041e-08
5.19933323167e-08
4.6046833894e-08
4.43380002394e-08
4.38053418772e-08
4.36087832239e-08
4.34713401294e-08
4.33721275313e-08
4.32732406739e-08
4.31714272439e-08
4.30654435257e-08
4.29552469402e-08
4.28403467965e-08
4.26920115421e-08
4.25626450594e-08
4.24254319951e-08
4.22804191489e-08
4.21259976418e-08
4.19617428589e-08
4.17879142051e-08
4.16044125378e-08
4.14106968872e-08
4.12072714485e-08
4.09969625635e-08
4.07778447009e-08
4.0550868579e-08
4.03185530037e-08
4.00809486358e-08
3.98401021923e-08
3.96000782059e-08
3.93601153601e-08
3.91228005225e-08
3.88910440894e-08
3.86659568597e-08
3.84753957917e-08
3.82732059261e-08
3.80844768497e-08
3.79112161624e-08
3.77561668802e-08
3.76209254214e-08
3.75060584397e-08
3.74126334116e-08
3.73414511213e-08
3.72930952673e-08
3.72580164926e-08
0.232918
0.232918
0.232918
0.232918
0.232918
0.232918
0.232918
0.232918
0.232918
0.232918
0.232918
0.232918
0.232918
0.232918
0.232918
0.232918
0.232918
0.232918
0.232918
0.232918
0.232918
0.232773417561
6.26781219921e-05
4.62670537178e-07
1.09245974579e-07
6.46029792127e-08
5.0584316676e-08
4.64328845525e-08
4.52205310195e-08
4.47944003066e-08
4.45798729266e-08
4.44261022687e-08
4.42784621676e-08
4.41312473249e-08
4.3983911209e-08
4.38334731575e-08
4.36790757626e-08
4.3520736203e-08
4.33571493979e-08
4.31873021771e-08
4.3010849133e-08
4.28290453398e-08
4.26390240875e-08
4.24406292329e-08
4.22087197753e-08
4.19944584848e-08
4.17974641563e-08
4.15665419608e-08
4.13279867574e-08
4.10819287275e-08
4.08323364209e-08
4.05779514404e-08
4.03200396772e-08
4.00612984387e-08
3.98021341253e-08
3.95462089054e-08
3.92958703809e-08
3.90515852759e-08
3.88164613458e-08
3.8592185849e-08
3.83804267265e-08
3.81845442994e-08
3.80064521541e-08
3.78466788204e-08
3.77068766089e-08
3.75883907911e-08
3.74929263783e-08
3.74202338188e-08
3.73707683369e-08
3.73359061006e-08
0.232918
0.232918
0.232918
0.232918
0.232918
0.232918
0.232918
0.232918
0.232918
0.232918
0.232918
0.232918
0.232918
0.232918
0.232918
0.232918
0.232918
0.232918
0.232918
0.232918
0.232918
0.217095768261
2.13909722981e-05
2.42401458606e-07
9.35539099301e-08
6.06946699899e-08
5.04820123465e-08
4.7519958996e-08
4.65981733075e-08
4.61983695255e-08
4.59280189165e-08
4.57091547125e-08
4.54961057758e-08
4.52875545778e-08
4.50794081141e-08
4.48700846372e-08
4.46599929341e-08
4.4446784269e-08
4.42299612161e-08
4.40114958098e-08
4.37876088029e-08
4.35578348337e-08
4.33226483673e-08
4.30803998302e-08
4.28319105646e-08
4.25782561954e-08
4.23172447481e-08
4.20507704797e-08
4.17787001718e-08
4.15009233017e-08
4.1219935988e-08
4.09354694198e-08
4.06511003763e-08
4.03679422944e-08
4.00863266425e-08
3.98096492557e-08
3.95385655059e-08
3.92770348214e-08
3.90269953332e-08
3.87890297379e-08
3.85658807219e-08
3.83590409551e-08
3.81968395369e-08
3.80284045479e-08
3.78821969109e-08
3.77583914583e-08
3.76578131841e-08
3.75810921292e-08
3.75287304214e-08
3.74922075073e-08
0.232918
0.232918
0.232918
0.232918
0.232918
0.232918
0.232918
0.232918
0.232918
0.232918
0.232918
0.232918
0.232918
0.232918
0.232918
0.232918
0.232918
0.232918
0.232918
0.232918
0.232917720983
0.131520485492
9.93780103921e-06
1.75075640796e-07
8.36389182968e-08
5.88380056827e-08
5.12962721255e-08
4.91156542012e-08
4.83276737231e-08
4.79204267672e-08
4.75759705504e-08
4.72790886238e-08
4.69905004084e-08
4.67066761787e-08
4.64268180491e-08
4.61480958407e-08
4.58710654801e-08
4.55931200951e-08
4.53158284103e-08
4.50372740093e-08
4.47554703595e-08
4.44707438751e-08
4.41811690747e-08
4.38891102047e-08
4.35925705188e-08
4.32908841444e-08
4.29847743832e-08
4.26733249078e-08
4.23611799973e-08
4.20451080856e-08
4.17282682538e-08
4.1410614368e-08
4.11196230686e-08
4.08051951184e-08
4.04947052519e-08
4.0193075776e-08
3.98989320211e-08
3.96155975212e-08
3.93446576398e-08
3.90878176159e-08
3.88498714557e-08
3.86296368483e-08
3.84290452133e-08
3.82512246433e-08
3.809628595e-08
3.79651192367e-08
3.78586055349e-08
3.77773838325e-08
3.77218925211e-08
3.76844642887e-08
0.232918
0.232918
0.232918
0.232918
0.232918
0.232918
0.232918
0.232918
0.232918
0.232918
0.232918
0.232918
0.232918
0.232918
0.232918
0.232918
0.232918
0.232918
0.232918
0.232918
0.232917074761
0.00537329031719
3.78170396078e-06
1.4064619402e-07
7.69053997314e-08
5.82052386829e-08
5.27665729187e-08
5.11141944399e-08
5.04020872093e-08
4.99271214209e-08
4.95240510312e-08
4.91078289992e-08
4.87307234029e-08
4.83624737525e-08
4.79999410744e-08
4.76419514821e-08
4.72886900102e-08
4.69392516623e-08
4.65916377382e-08
4.62452929395e-08
4.58982345076e-08
4.55501756384e-08
4.52277865457e-08
4.48780172109e-08
4.45248755977e-08
4.41697621479e-08
4.38111437422e-08
4.34537369176e-08
4.30935358092e-08
4.27345137696e-08
4.2374757547e-08
4.20173913991e-08
4.16622689792e-08
4.13148900352e-08
4.09735053487e-08
4.06410138849e-08
4.03184950684e-08
4.0009968275e-08
3.97171542635e-08
3.94403075858e-08
3.92086742397e-08
3.89716584875e-08
3.87563311109e-08
3.85659849515e-08
3.84001634617e-08
3.82598394927e-08
3.81459199723e-08
3.8058966781e-08
3.79997140304e-08
3.79604280927e-08
0.232918
0.232918
0.232918
0.232918
0.232918
0.232918
0.232918
0.232918
0.232918
0.232918
0.232918
0.232918
0.232918
0.232918
0.232918
0.232918
0.232918
0.232918
0.232918
0.232918
0.232813735833
7.49673772628e-05
5.6556131856e-07
1.19060830768e-07
7.26589014591e-08
5.86510286351e-08
5.46729322723e-08
5.34006058651e-08
5.26973294381e-08
5.21704443782e-08
5.16731197225e-08
5.11901968665e-08
5.07194904197e-08
5.02587854255e-08
4.98084503702e-08
4.93643576396e-08
4.89265175684e-08
4.84953310045e-08
4.80691415267e-08
4.76464062955e-08
4.72249102402e-08
4.68087215815e-08
4.63925026442e-08
4.59782351798e-08
4.55632604033e-08
4.51481721297e-08
4.47343900879e-08
4.4322086661e-08
4.39107224651e-08
4.35003362379e-08
4.30956064872e-08
4.27209956345e-08
4.23271889782e-08
4.19399742092e-08
4.15638561965e-08
4.11976839189e-08
4.08452950378e-08
4.05070639505e-08
4.01889531856e-08
3.98890521321e-08
3.9610122533e-08
3.93537359861e-08
3.91213137671e-08
3.89163607301e-08
3.87385228453e-08
3.85880516568e-08
3.84657311871e-08
3.83723604865e-08
3.83087680564e-08
3.82677518084e-08
0.232918
0.232918
0.232918
0.232918
0.232918
0.232918
0.232918
0.232918
0.232918
0.232918
0.232918
0.232918
0.232918
0.232918
0.232918
0.232918
0.232918
0.232918
0.232918
0.232918
0.224760112874
2.60211733477e-05
2.84067235723e-07
1.05281416042e-07
7.04047010148e-08
6.01035755904e-08
5.7219629133e-08
5.60887759673e-08
5.53385925738e-08
5.46959991707e-08
5.40816467958e-08
5.34859026706e-08
5.29049539816e-08
5.23368370698e-08
5.17852842055e-08
5.12439074628e-08
5.0711749385e-08
5.01920197313e-08
4.96800037492e-08
4.91742147407e-08
4.86742553635e-08
4.81795111426e-08
4.76898822124e-08
4.72035733144e-08
4.67503783516e-08
4.62703292412e-08
4.57945410139e-08
4.53227601319e-08
4.48550286737e-08
4.43917480323e-08
4.39365477175e-08
4.34888351998e-08
4.30495801728e-08
4.26208519732e-08
4.22033259806e-08
4.18024829463e-08
4.14448674103e-08
4.10769011331e-08
4.07281541217e-08
4.04037114239e-08
4.01017006314e-08
3.98260171449e-08
3.9576833461e-08
3.93551993789e-08
3.91632799807e-08
3.90012594145e-08
3.8869698577e-08
3.87691746986e-08
3.87000226596e-08
3.86553972477e-08
0.232918
0.232918
0.232918
0.232918
0.232918
0.232918
0.232918
0.232918
0.232918
0.232918
0.232918
0.232918
0.232918
0.232918
0.232918
0.232918
0.232918
0.232918
0.232918
0.232917791281
0.155144226009
1.21667742069e-05
2.00182901848e-07
9.55435004839e-08
6.97944188839e-08
6.23069781673e-08
6.02182104377e-08
5.91691487777e-08
5.82890274201e-08
5.75075552842e-08
5.67516904546e-08
5.60192065475e-08
5.53118667893e-08
5.46237296044e-08
5.39565097698e-08
5.33068999638e-08
5.26719169617e-08
5.20493281915e-08
5.14718303024e-08
5.08751465608e-08
5.02877935386e-08
4.97082867907e-08
4.91382344136e-08
4.85750335114e-08
4.80175722251e-08
4.74690717291e-08
4.69269528502e-08
4.63919831591e-08
4.58637536534e-08
4.53731375148e-08
4.48615138143e-08
4.43627733606e-08
4.38756556039e-08
4.34028792018e-08
4.29446426316e-08
4.25023456589e-08
4.20820357231e-08
4.16815622913e-08
4.13051407963e-08
4.09801310955e-08
4.06536285066e-08
4.03541173885e-08
4.00853029969e-08
3.98474708542e-08
3.96407162271e-08
3.9466558964e-08
3.93260091783e-08
3.92185626484e-08
3.91444514014e-08
3.90977111918e-08
0.232918
0.232918
0.232918
0.232918
0.232918
0.232918
0.232918
0.232918
0.232918
0.232918
0.232918
0.232918
0.232918
0.232918
0.232918
0.232918
0.232918
0.232918
0.232918
0.232917241264
0.0215281042337
5.19139450361e-06
1.58458447939e-07
8.91443703498e-08
7.03718561935e-08
6.5227001775e-08
6.36302700109e-08
6.25315250987e-08
6.15281634258e-08
6.05800718762e-08
5.96649032051e-08
5.8783112021e-08
5.79323439004e-08
5.71433476285e-08
5.63471980879e-08
5.55730816628e-08
5.48226849402e-08
5.4092429089e-08
5.33778139857e-08
5.26803555774e-08
5.19970688506e-08
5.13259704412e-08
5.06691593622e-08
5.0053599095e-08
4.94189457354e-08
4.87939717651e-08
4.81777920727e-08
4.75752338835e-08
4.6983686854e-08
4.64030247807e-08
4.58339673813e-08
4.53113472167e-08
4.47728152094e-08
4.42501698801e-08
4.37487234944e-08
4.32672294297e-08
4.28083700026e-08
4.23729236627e-08
4.19622420958e-08
4.15815462775e-08
4.12291914875e-08
4.093649103e-08
4.06472688967e-08
4.03907170706e-08
4.01695795098e-08
3.99828494183e-08
3.98312553557e-08
3.97152077389e-08
3.96350753282e-08
3.95851785179e-08
0.232918
0.232918
0.232918
0.232918
0.232918
0.232918
0.232918
0.232918
0.232918
0.232918
0.232918
0.232918
0.232918
0.232918
0.232918
0.232918
0.232918
0.232918
0.232918
0.232827309529
8.4235972256e-05
7.13295639994e-07
1.33081428226e-07
8.5362783122e-08
7.21042221464e-08
6.87255451927e-08
6.73383969831e-08
6.6170867528e-08
6.49948102389e-08
6.38735770585e-08
6.279387835e-08
6.17837514434e-08
6.07807872577e-08
5.98109968868e-08
5.88757892328e-08
5.79693015065e-08
5.70928041335e-08
5.6242715156e-08
5.544730224e-08
5.46402572722e-08
5.3853109897e-08
5.30847739078e-08
5.23320775917e-08
5.15973213149e-08
5.08784236175e-08
5.02036220893e-08
4.95135363126e-08
4.88371169952e-08
4.81746789877e-08
4.75301267672e-08
4.69029447529e-08
4.62918996937e-08
4.56993767379e-08
4.51587059805e-08
4.46109744383e-08
4.40859325986e-08
4.35853086869e-08
4.31145919857e-08
4.26721176101e-08
4.22611862855e-08
4.18815117201e-08
4.15354708931e-08
4.12236313777e-08
4.09801931007e-08
4.07421828264e-08
4.05414041186e-08
4.0378962139e-08
4.02545749868e-08
4.01682042997e-08
4.01147202795e-08
0.232918
0.232918
0.232918
0.232918
0.232918
0.232918
0.232918
0.232918
0.232918
0.232918
0.232918
0.232918
0.232918
0.232918
0.232918
0.232918
0.232918
0.232918
0.232918
0.220196017496
2.48265832564e-05
3.01774744764e-07
1.17411311893e-07
8.39966380411e-08
7.50635663086e-08
7.28294220199e-08
7.14691261203e-08
7.01195681924e-08
6.87612817914e-08
6.74401201757e-08
6.61682630163e-08
6.49498358222e-08
6.37753517929e-08
6.26477513734e-08
6.15929887468e-08
6.05454918919e-08
5.95322939242e-08
5.8550328778e-08
5.76007688147e-08
5.66778464403e-08
5.57798074187e-08
5.49383126569e-08
5.40879975144e-08
5.32581447135e-08
5.24467666763e-08
5.16571526821e-08
5.08867371744e-08
5.01653521224e-08
4.94329263471e-08
4.87209532309e-08
4.80285150308e-08
4.73570593622e-08
4.67101434759e-08
4.60884163274e-08
4.55224827384e-08
4.49527444197e-08
4.44109011387e-08
4.39025103073e-08
4.34259175246e-08
4.29835631871e-08
4.2576816627e-08
4.22065054234e-08
4.18735595964e-08
4.16087812338e-08
4.135378865e-08
4.11398243502e-08
4.09663137758e-08
4.08331396969e-08
4.07403800336e-08
4.06834187756e-08
0.232918
0.232918
0.232918
0.232918
0.232918
0.232918
0.232918
0.232918
0.232918
0.232918
0.232918
0.232918
0.232918
0.232918
0.232918
0.232918
0.232918
0.232918
0.23291766178
0.120438122484
1.043833488e-05
2.05591724239e-07
1.07527627933e-07
8.46969091966e-08
7.91164255068e-08
7.74867323909e-08
7.59965083157e-08
7.43683499211e-08
7.27587270123e-08
7.12069036115e-08
6.97226635158e-08
6.83029557562e-08
6.69809078122e-08
6.56748964593e-08
6.44250488908e-08
6.32204599795e-08
6.20599066736e-08
6.09744842999e-08
5.9892978555e-08
5.88436022109e-08
5.78292687522e-08
5.68430844459e-08
5.59217979963e-08
5.49915476214e-08
5.4085802431e-08
5.32070488248e-08
5.23514026603e-08
5.15185679962e-08
5.07437854235e-08
4.99611502193e-08
4.92037043435e-08
4.84704055349e-08
4.77662638805e-08
4.70907857017e-08
4.64751423339e-08
4.58598743002e-08
4.52783201656e-08
4.47298994401e-08
4.42168056958e-08
4.37426821114e-08
4.33073213685e-08
4.29112342984e-08
4.25565827143e-08
4.22740470954e-08
4.20020993904e-08
4.17734489089e-08
4.1587449744e-08
4.14443890197e-08
4.13443440994e-08
4.12831124766e-08
0.232918
0.232918
0.232918
0.232918
0.232918
0.232918
0.232918
0.232918
0.232918
0.232918
0.232918
0.232918
0.232918
0.232918
0.232918
0.232918
0.232918
0.232918
0.232913554102
0.00040920926099
2.85901571024e-06
1.61345777943e-07
1.01950040664e-07
8.71810148558e-08
8.39993129243e-08
8.25432873828e-08
8.07581097738e-08
7.88566447397e-08
7.69788262648e-08
7.51770374368e-08
7.34999660226e-08
7.18646848258e-08
7.03034276411e-08
6.88104124451e-08
6.74176715874e-08
6.6045523964e-08
6.47284264779e-08
6.34596888167e-08
6.22729245998e-08
6.10945264414e-08
5.995563156e-08
5.88507740342e-08
5.77847312484e-08
5.67851413586e-08
5.57803484132e-08
5.48082889983e-08
5.38643651912e-08
5.29495812471e-08
5.20996463672e-08
5.12429439125e-08
5.04176734441e-08
4.96219249744e-08
4.88572023693e-08
4.81267731547e-08
4.74632040066e-08
4.68022011237e-08
4.61761624237e-08
4.55883448707e-08
4.50404756272e-08
4.45346383258e-08
4.40699478044e-08
4.36481206556e-08
4.33015946771e-08
4.29681378369e-08
4.26790295671e-08
4.24358847993e-08
4.22379263107e-08
4.20854071752e-08
4.19782209389e-08
4.19132050289e-08
0.232918
0.232918
0.232918
0.232918
0.232918
0.232918
0.232918
0.232918
0.232918
0.232918
0.232918
0.232918
0.232918
0.232918
0.232918
0.232918
0.232918
0.232918
0.229336059553
3.49011045397e-05
4.0787446854e-07
1.37220923097e-07
1.00092270794e-07
9.12866371391e-08
8.94768638039e-08
8.78906089125e-08
8.57448496412e-08
8.3527321524e-08
8.14079179749e-08
7.93472551514e-08
7.73878072893e-08
7.55243290015e-08
7.37879181103e-08
7.20927695251e-08
7.04767939678e-08
6.89664020315e-08
6.748062161e-08
6.60584540237e-08
6.46875663531e-08
6.34091128873e-08
6.21391011647e-08
6.09132315029e-08
5.97307180754e-08
5.86235196807e-08
5.75161691164e-08
5.64480860045e-08
5.54150920183e-08
5.44148334114e-08
5.34864007195e-08
5.25568030583e-08
5.16596768602e-08
5.07999531007e-08
4.99770233802e-08
4.92253114096e-08
4.84756111087e-08
4.77658855216e-08
4.70977322765e-08
4.64711533421e-08
4.58884891337e-08
4.53498181741e-08
4.48873388675e-08
4.44399755206e-08
4.40384905297e-08
4.36853948214e-08
4.33791112155e-08
4.31220592754e-08
4.29128186591e-08
4.27512400647e-08
4.26372631875e-08
4.25677112408e-08
0.232918
0.232918
0.232918
0.232918
0.232918
0.232918
0.232918
0.232918
0.232918
0.232918
0.232918
0.232918
0.232918
0.232918
0.232918
0.232918
0.232918
0.232917700127
0.135054761688
1.21152446214e-05
2.35802886616e-07
1.24176788284e-07
1.01419775521e-07
9.69677099861e-08
9.56499955269e-08
9.35443109957e-08
9.10166826336e-08
8.84404605141e-08
8.5967848061e-08
8.36250223585e-08
8.14438344376e-08
7.93364916732e-08
7.73319282153e-08
7.54674531472e-08
7.36517254643e-08
7.19173960074e-08
7.02982784357e-08
6.87125119216e-08
6.7188865132e-08
6.57298677312e-08
6.43634410776e-08
6.30101884699e-08
6.17095117663e-08
6.04911713715e-08
5.9281519146e-08
5.81137847083e-08
5.69868589694e-08
5.59022026311e-08
5.48913228286e-08
5.38860530556e-08
5.29214959463e-08
5.19972741867e-08
5.11132521463e-08
5.03062897088e-08
4.95061792137e-08
4.87473473262e-08
4.80364052344e-08
4.73711295256e-08
4.67523071158e-08
4.62155827989e-08
4.56927207317e-08
4.52181380879e-08
4.47924846252e-08
4.44190268564e-08
4.40960403208e-08
4.38235640019e-08
4.36025654388e-08
4.34315199297e-08
4.33102105842e-08
4.32361254014e-08
0.232918
0.232918
0.232918
0.232918
0.232918
0.232918
0.232918
0.232918
0.232918
0.232918
0.232918
0.232918
0.232918
0.232918
0.232918
0.232918
0.232918
0.232912056142
0.000291526833682
2.99783240367e-06
1.76811111982e-07
1.18141632598e-07
1.05528942748e-07
1.03636005988e-07
1.02114142764e-07
9.94097572978e-08
9.64127326764e-08
9.34627731447e-08
9.07034394948e-08
8.80558487522e-08
8.55560266335e-08
8.3232737256e-08
8.09895268807e-08
7.89029449189e-08
7.68764212059e-08
7.49521327689e-08
7.31534732164e-08
7.1398655471e-08
6.97197206946e-08
6.81100646127e-08
6.66078059608e-08
6.51267895339e-08
6.37015297768e-08
6.23736835638e-08
6.10533070372e-08
5.9787472706e-08
5.85693932125e-08
5.74354368759e-08
5.63057075045e-08
5.52257979981e-08
5.41908117979e-08
5.32014169763e-08
5.22927259955e-08
5.13948575681e-08
5.05439782867e-08
4.97410485796e-08
4.89857808843e-08
4.83174388471e-08
4.76601443995e-08
4.70569747679e-08
4.6505238898e-08
4.60052473842e-08
4.55595028916e-08
4.51655785041e-08
4.48263966718e-08
4.45393903044e-08
4.43418806369e-08
4.41611826681e-08
4.4032374159e-08
4.39534656426e-08
0.232918
0.232918
0.232918
0.232918
0.232918
0.232918
0.232918
0.232918
0.232918
0.232918
0.232918
0.232918
0.232918
0.232918
0.232918
0.232918
0.23291799229
0.218705746889
2.68920263948e-05
3.84625967415e-07
1.50208465186e-07
1.17614791017e-07
1.11846548041e-07
1.1091251652e-07
1.08634115687e-07
1.0534379513e-07
1.01885752743e-07
9.86001547621e-08
9.54593256444e-08
9.25426829556e-08
8.97562492219e-08
8.71644106269e-08
8.46773075963e-08
8.23177862896e-08
8.01237071399e-08
7.80003187516e-08
7.60201646391e-08
7.40903100638e-08
7.22518733308e-08
7.05343797511e-08
6.88482637966e-08
6.72367950542e-08
6.56911513894e-08
6.42461894647e-08
6.28227491677e-08
6.1455899364e-08
6.01836443653e-08
5.89244570793e-08
5.77167321007e-08
5.6558906866e-08
5.54546289543e-08
5.44395787332e-08
5.3435561126e-08
5.24827637518e-08
5.15790473408e-08
5.07699051914e-08
4.99731188358e-08
4.92280282091e-08
4.85376084167e-08
4.79025516013e-08
4.73226809731e-08
4.67989507902e-08
4.63674683472e-08
4.59550840063e-08
4.55973273541e-08
4.52967727771e-08
4.50508418021e-08
4.48594667025e-08
4.47226574594e-08
4.46387017222e-08
0.232918
0.232918
0.232918
0.232918
0.232918
0.232918
0.232918
0.232918
0.232918
0.232918
0.232918
0.232918
0.232918
0.232918
0.232918
0.232918
0.232917348858
0.0532104296216
8.31307703041e-06
2.26678188887e-07
1.38257701697e-07
1.21596306098e-07
1.19853351312e-07
1.18579585337e-07
1.15341558803e-07
1.11399590498e-07
1.07465417874e-07
1.0374140327e-07
1.0029014878e-07
9.70509012072e-08
9.39656372636e-08
9.1058383626e-08
8.83596572115e-08
8.57657101331e-08
8.33557605629e-08
8.10289791889e-08
7.88638799349e-08
7.67586853699e-08
7.47578206255e-08
7.28900028168e-08
7.10666252642e-08
6.93234490243e-08
6.76966780258e-08
6.60963455718e-08
6.45667583883e-08
6.31007460411e-08
6.17360178063e-08
6.03915303342e-08
5.91043307002e-08
5.79163829707e-08
5.67428172064e-08
5.5625036264e-08
5.4559947379e-08
5.35537607655e-08
5.26447101197e-08
5.17506545762e-08
5.09131140267e-08
5.01329164139e-08
4.94106182599e-08
4.87847616996e-08
4.81775348071e-08
4.76282951464e-08
4.71388202663e-08
4.67065851004e-08
4.63338978934e-08
4.60181315705e-08
4.576069778e-08
4.55601797373e-08
4.54155981589e-08
4.53255763334e-08
0.232918
0.232918
0.232918
0.232918
0.232918
0.232918
0.232918
0.232918
0.232918
0.232918
0.232918
0.232918
0.232918
0.232918
0.232918
0.232918
0.23186294025
5.12867799692e-05
7.41756756484e-07
1.76990914732e-07
1.35223171837e-07
1.28819459081e-07
1.28522279243e-07
1.26146567907e-07
1.2193672511e-07
1.17369124136e-07
1.13022550437e-07
1.08898134572e-07
1.05088532314e-07
1.0147524314e-07
9.81297562608e-08
9.49417267594e-08
9.19910995232e-08
8.91612942728e-08
8.6534555819e-08
8.40047666429e-08
8.16524800792e-08
7.93775478457e-08
7.72108387555e-08
7.5196908628e-08
7.32345722328e-08
7.14048210877e-08
6.96148591098e-08
6.79021595703e-08
6.62675038299e-08
6.47486522525e-08
6.3253184355e-08
6.18255572693e-08
6.05025105239e-08
5.92009997234e-08
5.79614977698e-08
5.67827551886e-08
5.57068925991e-08
5.46464321227e-08
5.36491899856e-08
5.27124890507e-08
5.18363765489e-08
5.10632124397e-08
5.03078174308e-08
4.9613820036e-08
4.89814816459e-08
4.84101114895e-08
4.78991843948e-08
4.7450518129e-08
4.71012055853e-08
4.6772581597e-08
4.65030695127e-08
4.62920349652e-08
4.61390144114e-08
4.60432955779e-08
0.232918
0.232918
0.232918
0.232918
0.232918
0.232918
0.232918
0.232918
0.232918
0.232918
0.232918
0.232918
0.232918
0.232918
0.232918
0.232917586796
0.112272411868
1.19462789228e-05
2.78400601106e-07
1.58225827682e-07
1.39441795345e-07
1.38415482214e-07
1.37526010698e-07
1.33576009869e-07
1.28398389942e-07
1.23299785964e-07
1.18498029538e-07
1.13968493689e-07
1.09793895252e-07
1.05845475673e-07
1.02199097539e-07
9.87334860358e-08
9.55253731108e-08
9.25090533559e-08
8.96214822567e-08
8.68899057666e-08
8.43574813792e-08
8.19077884387e-08
7.96328615373e-08
7.74256202663e-08
7.53262782461e-08
7.33709042851e-08
7.14642135125e-08
6.96906446177e-08
6.79543463651e-08
6.62968599115e-08
6.47122796701e-08
6.32492396398e-08
6.18100840048e-08
6.04400978063e-08
5.91815925264e-08
5.79442159616e-08
5.67721913458e-08
5.56663458533e-08
5.46694008894e-08
5.36915218759e-08
5.27779515646e-08
5.19287771093e-08
5.1143790854e-08
5.04228222968e-08
4.98100100773e-08
4.9217003371e-08
4.86869225064e-08
4.82199938674e-08
4.78159897184e-08
4.74740250483e-08
4.71927510116e-08
4.69729739046e-08
4.68123893721e-08
4.6709940393e-08
0.232918
0.232918
0.232918
0.232918
0.232918
0.232918
0.232918
0.232918
0.232918
0.232918
0.232918
0.232918
0.232918
0.232918
0.232918
0.232498745695
7.15331699213e-05
1.34053311828e-06
2.0145894815e-07
1.53977260977e-07
1.48270133165e-07
1.48886768237e-07
1.4608944115e-07
1.40647531042e-07
1.34697795993e-07
1.2905839836e-07
1.23752172995e-07
1.18873218899e-07
1.14334458644e-07
1.1006186721e-07
1.06117783975e-07
1.02426437286e-07
9.89206580781e-08
9.56783534215e-08
9.25734954176e-08
8.97017351629e-08
8.69372832578e-08
8.43755154311e-08
8.18975276105e-08
7.95492256498e-08
7.73667104435e-08
7.52440820719e-08
7.3272175139e-08
7.13484712117e-08
6.95154501393e-08
6.78160619434e-08
6.61482374922e-08
6.4562004637e-08
6.30539263247e-08
6.16666212144e-08
6.03048052561e-08
5.90135753437e-08
5.783851186e-08
5.66866917627e-08
5.56032230115e-08
5.45880449098e-08
5.36407879984e-08
5.28069028856e-08
5.19953949594e-08
5.12504042996e-08
5.0570651468e-08
4.99570213547e-08
4.94099289736e-08
4.89704049513e-08
4.85526611587e-08
4.81973018841e-08
4.79066614198e-08
4.76776008048e-08
4.75087251069e-08
4.73995450655e-08
0.232918
0.232918
0.232918
0.232918
0.232918
0.232918
0.232918
0.232918
0.232918
0.232918
0.232918
0.232918
0.232918
0.232918
0.232917570436
0.112782481648
1.27060840937e-05
3.1046686109e-07
1.77241479921e-07
1.59460966699e-07
1.59964699302e-07
1.59070123432e-07
1.53940296045e-07
1.47268747171e-07
1.40695194113e-07
1.34548884686e-07
1.28860690977e-07
1.23536465383e-07
1.18651361648e-07
1.14107309644e-07
1.09819753279e-07
1.05870444731e-07
1.02125035893e-07
9.86603804723e-08
9.5410246963e-08
9.22964673882e-08
8.94183079109e-08
8.66469550707e-08
8.402174297e-08
8.15887916438e-08
7.92330384945e-08
7.70486605744e-08
7.49218792382e-08
7.28996848106e-08
7.10246796785e-08
6.91946799571e-08
6.74531964475e-08
6.58464084835e-08
6.4272166401e-08
6.27769226529e-08
6.14113627011e-08
6.00697063053e-08
5.88019703028e-08
5.76092914268e-08
5.6536504084e-08
5.54865876743e-08
5.45100081653e-08
5.36028204857e-08
5.27650257466e-08
5.20446425443e-08
5.13441678336e-08
5.07116850733e-08
5.01478949323e-08
4.96504755349e-08
4.92191374539e-08
4.88529502476e-08
4.85511795043e-08
4.83601965888e-08
4.81822159396e-08
4.80651397256e-08
0.232918
0.232918
0.232918
0.232918
0.232918
0.232918
0.232918
0.232918
0.232918
0.232918
0.232918
0.232918
0.232918
0.232918
0.231696722859
5.63121547611e-05
1.17683602873e-06
2.18063998606e-07
1.73881702781e-07
1.7088748534e-07
1.7214867204e-07
1.68194844138e-07
1.61103476635e-07
1.53469161502e-07
1.46304709506e-07
1.39682867772e-07
1.33582265931e-07
1.27887384458e-07
1.22668090227e-07
1.17822606458e-07
1.13319431902e-07
1.09062659879e-07
1.05143821059e-07
1.01420811601e-07
9.79819874858e-08
9.4694458555e-08
9.16560534874e-08
8.87375553246e-08
8.60320845258e-08
8.34237423357e-08
8.10061406353e-08
7.86623162595e-08
7.64932860491e-08
7.43803248154e-08
7.23733269834e-08
7.05181489588e-08
6.87046385614e-08
6.69842449123e-08
6.54034360136e-08
6.38540001454e-08
6.23879727114e-08
6.10043784602e-08
5.97456583972e-08
5.85181620754e-08
5.73633816912e-08
5.62834855761e-08
5.5327512147e-08
5.43966708175e-08
5.35368232546e-08
5.27482503016e-08
5.20304236238e-08
5.13824558026e-08
5.08557274751e-08