/*--------------------------------*- C++ -*----------------------------------*\
| =========                 |                                                 |
| \\      /  F ield         | foam-extend: Open Source CFD                    |
|  \\    /   O peration     | Version:     4.1                                |
|   \\  /    A nd           | Web:         http://www.foam-extend.org         |
|    \\/     M anipulation  |                                                 |
\*---------------------------------------------------------------------------*/
FoamFile
{
    version     2.0;
    format      ascii;
    class       volScalarField;
    location    "0.0008";
    object      O2Plus;
}
// * * * * * * * * * * * * * * * * * * * * * * * * * * * * * * * * * * * * * //

dimensions      [0 0 0 0 0 0 0];

internalField   nonuniform List<scalar> 
8400
(
2.93247975577e-108
2.93247975579e-108
2.93247975581e-108
2.93247975582e-108
2.93247975583e-108
2.93247975585e-108
2.93247975586e-108
2.93247975588e-108
2.93247975589e-108
2.9324797559e-108
2.93247975592e-108
2.93247975593e-108
2.93247975594e-108
2.93247975595e-108
2.93247975597e-108
2.93247975598e-108
2.93247975602e-108
2.93247975775e-108
2.93247985529e-108
2.93248539868e-108
2.93278756168e-108
2.94930335261e-108
3.14707127841e-108
3.45568589401e-16
4.14503122358e-08
1.85567215677e-07
2.23160041058e-07
2.35493520798e-07
2.44928566659e-07
2.53089306674e-07
2.56858846724e-07
2.57461850684e-07
2.57131129987e-07
2.5653597455e-07
2.55922361099e-07
2.5533949021e-07
2.54792297162e-07
2.54274139514e-07
2.53777301596e-07
2.53295407177e-07
2.528220073e-07
2.52351204703e-07
2.51877994608e-07
2.51398015558e-07
2.50908038292e-07
2.50477259028e-07
2.49954686437e-07
2.49410778444e-07
2.48844534562e-07
2.48255154244e-07
2.47640771113e-07
2.47000800208e-07
2.46338264871e-07
2.45656139946e-07
2.44959692001e-07
2.44252245096e-07
2.43538995607e-07
2.42824278818e-07
2.42117729269e-07
2.41427880121e-07
2.40764436706e-07
2.40135552885e-07
2.39550154155e-07
2.39017468286e-07
2.38545833352e-07
2.38142611827e-07
2.37814244621e-07
2.37565991286e-07
2.37402250706e-07
2.37431768715e-07
2.93247975119e-108
2.93247975119e-108
2.9324797512e-108
2.9324797512e-108
2.93247975121e-108
2.93247975121e-108
2.93247975122e-108
2.93247975123e-108
2.93247975123e-108
2.93247975124e-108
2.93247975124e-108
2.93247975125e-108
2.93247975125e-108
2.93247975126e-108
2.93247975126e-108
2.93247975127e-108
2.93247975143e-108
2.93247976041e-108
2.93248027692e-108
2.93250899543e-108
2.9341264491e-108
2.97084647062e-108
1.71646207375e-42
2.90753251882e-11
1.03942124031e-07
2.04959656344e-07
2.27670633246e-07
2.36007319725e-07
2.44968386695e-07
2.51599941298e-07
2.54213845158e-07
2.54862588761e-07
2.5481511782e-07
2.54667826413e-07
2.54474143772e-07
2.54260738386e-07
2.54033115715e-07
2.5379009416e-07
2.53529542336e-07
2.53174756367e-07
2.52874089465e-07
2.52551579203e-07
2.52204865206e-07
2.51831890844e-07
2.51429105843e-07
2.50996016655e-07
2.50532136441e-07
2.50037034491e-07
2.49511755698e-07
2.48955106405e-07
2.48368032829e-07
2.4774938082e-07
2.47104328111e-07
2.46437017464e-07
2.45754250834e-07
2.45059742163e-07
2.44359517395e-07
2.4365800285e-07
2.42965980639e-07
2.42292070942e-07
2.41646436287e-07
2.41036023174e-07
2.40469423973e-07
2.39953416409e-07
2.39496665911e-07
2.3910666927e-07
2.38789248114e-07
2.38548955622e-07
2.3838939577e-07
2.38389019463e-07
2.93247974897e-108
2.93247974898e-108
2.93247974898e-108
2.93247974898e-108
2.93247974899e-108
2.93247974899e-108
2.93247974899e-108
2.932479749e-108
2.932479749e-108
2.932479749e-108
2.93247974901e-108
2.93247974901e-108
2.93247974901e-108
2.93247974902e-108
2.93247974902e-108
2.93247974904e-108
2.93247974993e-108
2.93247980106e-108
2.93248274414e-108
2.93264511415e-108
2.94173298899e-108
3.06523186463e-108
4.49414963924e-22
2.12935036452e-08
1.70865704356e-07
2.17627031899e-07
2.30467454461e-07
2.38257042575e-07
2.46467852077e-07
2.51306007643e-07
2.52953711702e-07
2.53360476836e-07
2.5346704359e-07
2.53468178293e-07
2.53423709636e-07
2.53345284783e-07
2.53160331105e-07
2.53018916884e-07
2.52847121259e-07
2.52643677602e-07
2.52407381166e-07
2.5213742591e-07
2.51830644973e-07
2.51488355451e-07
2.51109897753e-07
2.50694871528e-07
2.50244857893e-07
2.4975851499e-07
2.49236724861e-07
2.48679302371e-07
2.48088504038e-07
2.47468464697e-07
2.46823783e-07
2.46159263699e-07
2.45479076543e-07
2.44787709698e-07
2.44092070877e-07
2.43400978504e-07
2.42723261896e-07
2.42066806309e-07
2.41438968866e-07
2.40847071417e-07
2.40298144884e-07
2.39801369741e-07
2.39363457543e-07
2.38990305943e-07
2.38687809855e-07
2.38458854788e-07
2.38306169159e-07
2.38293910324e-07
2.93247974762e-108
2.93247974762e-108
2.93247974762e-108
2.93247974763e-108
2.93247974763e-108
2.93247974763e-108
2.93247974763e-108
2.93247974764e-108
2.93247974764e-108
2.93247974764e-108
2.93247974764e-108
2.93247974765e-108
2.93247974765e-108
2.93247974765e-108
2.93247974765e-108
2.93247974772e-108
2.93247975129e-108
2.93247995909e-108
2.93249179485e-108
2.9331579799e-108
2.95725546644e-108
4.68908951125e-43
5.68002577886e-13
6.83744477551e-08
1.95797462959e-07
2.24480544158e-07
2.33450987656e-07
2.4195974594e-07
2.49215822546e-07
2.52605964842e-07
2.53551739714e-07
2.53712032141e-07
2.5373163921e-07
2.53689498241e-07
2.53614538478e-07
2.53510621556e-07
2.53302894628e-07
2.53139567343e-07
2.52946078307e-07
2.52720418938e-07
2.52461298378e-07
2.52167459123e-07
2.51836512804e-07
2.51467949952e-07
2.51062163713e-07
2.50618899474e-07
2.50139603383e-07
2.4962437137e-07
2.49074109612e-07
2.48490021702e-07
2.47873238082e-07
2.47229287815e-07
2.46562593182e-07
2.45879612581e-07
2.45184342046e-07
2.44482313214e-07
2.43778921079e-07
2.43083380103e-07
2.42403930407e-07
2.41749369071e-07
2.41126129723e-07
2.40541978068e-07
2.40001677878e-07
2.39513818369e-07
2.39084596046e-07
2.38719367662e-07
2.38422567811e-07
2.38198410658e-07
2.38048448221e-07
2.38028444759e-07
2.9324797467e-108
2.9324797467e-108
2.9324797467e-108
2.93247974671e-108
2.93247974671e-108
2.93247974671e-108
2.93247974671e-108
2.93247974671e-108
2.93247974672e-108
2.93247974672e-108
2.93247974672e-108
2.93247974672e-108
2.93247974672e-108
2.93247974673e-108
2.93247974673e-108
2.93247974698e-108
2.93247976106e-108
2.93248057748e-108
2.93252620803e-108
2.93512169682e-108
2.98505591169e-108
2.94660585873e-42
3.34037823778e-10
1.2497288466e-07
2.09469030781e-07
2.29064906211e-07
2.37419509513e-07
2.46558137295e-07
2.52726340211e-07
2.54966137811e-07
2.55451577858e-07
2.55385058939e-07
2.55258399396e-07
2.55092372834e-07
2.54904172863e-07
2.54695213291e-07
2.54464347979e-07
2.54209106973e-07
2.53851897994e-07
2.53541211753e-07
2.53201435726e-07
2.52830115447e-07
2.52426011648e-07
2.51988031253e-07
2.51514209035e-07
2.51004121931e-07
2.50459486257e-07
2.49881431285e-07
2.4927326105e-07
2.48635517648e-07
2.47970718616e-07
2.4727922954e-07
2.46568518287e-07
2.45844379769e-07
2.45114512273e-07
2.44383203486e-07
2.43655739545e-07
2.42937918851e-07
2.42240012128e-07
2.41645488587e-07
2.41011865923e-07
2.40419796726e-07
2.39875943907e-07
2.39385843194e-07
2.38954909105e-07
2.38588555936e-07
2.38291241254e-07
2.38066098023e-07
2.37915068719e-07
2.3789016818e-07
2.93247974604e-108
2.93247974604e-108
2.93247974604e-108
2.93247974605e-108
2.93247974605e-108
2.93247974605e-108
2.93247974605e-108
2.93247974605e-108
2.93247974605e-108
2.93247974605e-108
2.93247974606e-108
2.93247974606e-108
2.93247974606e-108
2.93247974606e-108
2.93247974608e-108
2.93247974691e-108
2.93247979494e-108
2.93248256417e-108
2.93263570855e-108
2.94122765242e-108
3.06009638676e-108
3.70088359876e-22
1.97528578855e-08
1.69319682747e-07
2.18276764842e-07
2.32978141348e-07
2.42367433382e-07
2.51541314664e-07
2.56562098657e-07
2.58015750405e-07
2.58134360463e-07
2.57940171296e-07
2.57658938537e-07
2.57350018556e-07
2.57024705942e-07
2.56682452713e-07
2.56321625446e-07
2.55938500804e-07
2.55531890463e-07
2.55101181375e-07
2.546449331e-07
2.54162845591e-07
2.53652148668e-07
2.53110878407e-07
2.52463027589e-07
2.51860258766e-07
2.51303525014e-07
2.50640058145e-07
2.49946977138e-07
2.49228704825e-07
2.48490618041e-07
2.47734195896e-07
2.46962925098e-07
2.46179805451e-07
2.45393805174e-07
2.4461268263e-07
2.43842743409e-07
2.43089303515e-07
2.42357601422e-07
2.41656477671e-07
2.40994596856e-07
2.40379674589e-07
2.39817642392e-07
2.39312648909e-07
2.38869783057e-07
2.38493616348e-07
2.38187909499e-07
2.37955934784e-07
2.37799306121e-07
2.37767117255e-07
2.93247974555e-108
2.93247974555e-108
2.93247974555e-108
2.93247974555e-108
2.93247974555e-108
2.93247974555e-108
2.93247974555e-108
2.93247974556e-108
2.93247974556e-108
2.93247974556e-108
2.93247974556e-108
2.93247974556e-108
2.93247974556e-108
2.93247974556e-108
2.9324797456e-108
2.93247974755e-108
2.93247985867e-108
2.93248618433e-108
2.93283173298e-108
2.95163139172e-108
3.17438245582e-108
7.26581638846e-15
4.81742039928e-08
1.8910131171e-07
2.24873419867e-07
2.37570948423e-07
2.48296310992e-07
2.57178448128e-07
2.61145215032e-07
2.61954178736e-07
2.61729764231e-07
2.6131189267e-07
2.60838929799e-07
2.60351734589e-07
2.59854502796e-07
2.59346154355e-07
2.5882150244e-07
2.58281583333e-07
2.57724940825e-07
2.57151187416e-07
2.56556614759e-07
2.55939085109e-07
2.55294744622e-07
2.546252968e-07
2.53930877303e-07
2.53212116253e-07
2.52468234444e-07
2.51699955972e-07
2.50909213947e-07
2.5009844253e-07
2.49267280324e-07
2.4842286798e-07
2.47571302281e-07
2.46717730295e-07
2.45866575018e-07
2.45020824563e-07
2.44190227263e-07
2.43382945878e-07
2.42605827459e-07
2.41865669482e-07
2.41167565511e-07
2.40519702646e-07
2.40008572467e-07
2.39479528614e-07
2.39013709937e-07
2.38618349096e-07
2.38297565722e-07
2.38053912662e-07
2.37888932559e-07
2.37850104321e-07
2.93247974516e-108
2.93247974517e-108
2.93247974517e-108
2.93247974517e-108
2.93247974517e-108
2.93247974517e-108
2.93247974517e-108
2.93247974517e-108
2.93247974517e-108
2.93247974517e-108
2.93247974518e-108
2.93247974518e-108
2.93247974518e-108
2.93247974518e-108
2.93247974529e-108
2.93247975146e-108
2.93248010827e-108
2.93250013695e-108
2.9336274624e-108
2.96434880534e-108
1.07760244418e-42
6.14024444743e-12
8.70889584806e-08
2.02219733572e-07
2.30623537659e-07
2.43278324577e-07
2.55101808336e-07
2.63315018619e-07
2.662331397e-07
2.6653742954e-07
2.65994117287e-07
2.65342351124e-07
2.64658053859e-07
2.63967096654e-07
2.63272705085e-07
2.62573590332e-07
2.61864085417e-07
2.6114593386e-07
2.60418631763e-07
2.59679314339e-07
2.58924329948e-07
2.58149127332e-07
2.57355713308e-07
2.56544798799e-07
2.55714577855e-07
2.54862751219e-07
2.53988408754e-07
2.53095435894e-07
2.52188836417e-07
2.51268442195e-07
2.50336537789e-07
2.49397750306e-07
2.48529063485e-07
2.47585073782e-07
2.46649652591e-07
2.45731779995e-07
2.44835402266e-07
2.43964214325e-07
2.43126775884e-07
2.42331449334e-07
2.41587616025e-07
2.40899325055e-07
2.40272268744e-07
2.39710855536e-07
2.39219991604e-07
2.38803865791e-07
2.38465952285e-07
2.38208614292e-07
2.38033270424e-07
2.37985575933e-07
2.93247974486e-108
2.93247974486e-108
2.93247974486e-108
2.93247974486e-108
2.93247974487e-108
2.93247974487e-108
2.93247974487e-108
2.93247974487e-108
2.93247974487e-108
2.93247974487e-108
2.93247974487e-108
2.93247974487e-108
2.93247974487e-108
2.93247974488e-108
2.93247974517e-108
2.93247976172e-108
2.93248072017e-108
2.93253424262e-108
2.9355723516e-108
2.99169604589e-108
3.43028877977e-42
7.47416635054e-10
1.28172484996e-07
2.12473600507e-07
2.3610887484e-07
2.49835257667e-07
2.6255194161e-07
2.69835218633e-07
2.71848291283e-07
2.71634299631e-07
2.7086718623e-07
2.69894467087e-07
2.68979687511e-07
2.68069705602e-07
2.67161318332e-07
2.66252399366e-07
2.65344403607e-07
2.64435541867e-07
2.63521968862e-07
2.62601430848e-07
2.61670420832e-07
2.60726474392e-07
2.5984552077e-07
2.58879126494e-07
2.57897351721e-07
2.56896614907e-07
2.55882049609e-07
2.54858076131e-07
2.53823634179e-07
2.52780737931e-07
2.51733366112e-07
2.50681063823e-07
2.49631574721e-07
2.48593075143e-07
2.47569870042e-07
2.46565377997e-07
2.45588027768e-07
2.44646488421e-07
2.43746688025e-07
2.4289503703e-07
2.42172093683e-07
2.41436054404e-07
2.4076606284e-07
2.40167282495e-07
2.3964425597e-07
2.39201064638e-07
2.38841382149e-07
2.38566995393e-07
2.38378277513e-07
2.38322081782e-07
2.93247974462e-108
2.93247974462e-108
2.93247974462e-108
2.93247974462e-108
2.93247974462e-108
2.93247974462e-108
2.93247974462e-108
2.93247974462e-108
2.93247974462e-108
2.93247974463e-108
2.93247974463e-108
2.93247974463e-108
2.93247974463e-108
2.93247974464e-108
2.93247974544e-108
2.93247979133e-108
2.93248242133e-108
2.93262714641e-108
2.94068974166e-108
3.05472988258e-108
2.61368573425e-22
1.72329677975e-08
1.66047261332e-07
2.21084566677e-07
2.42224474248e-07
2.57499597643e-07
2.70290545197e-07
2.76509234304e-07
2.7766879472e-07
2.77080315552e-07
2.76032677928e-07
2.74895471987e-07
2.7375307351e-07
2.72619374129e-07
2.71493076066e-07
2.70371907654e-07
2.69251797252e-07
2.68137071522e-07
2.67025516452e-07
2.65908999116e-07
2.64788861786e-07
2.6366712247e-07
2.62539553974e-07
2.61404320863e-07
2.6025968028e-07
2.59103677006e-07
2.57941550691e-07
2.56774545362e-07
2.55599867944e-07
2.54422726303e-07
2.53251651751e-07
2.52160708518e-07
2.51003535624e-07
2.49861080723e-07
2.48740049427e-07
2.47647119518e-07
2.46584249067e-07
2.45561859353e-07
2.44589253315e-07
2.43671800363e-07
2.42814570112e-07
2.42023479675e-07
2.4130439006e-07
2.4066280343e-07
2.401030751e-07
2.3963020319e-07
2.39246852024e-07
2.38953650707e-07
2.3875091645e-07
2.38684169896e-07
2.93247974442e-108
2.93247974442e-108
2.93247974442e-108
2.93247974442e-108
2.93247974442e-108
2.93247974442e-108
2.93247974442e-108
2.93247974442e-108
2.93247974442e-108
2.93247974442e-108
2.93247974442e-108
2.93247974443e-108
2.93247974443e-108
2.93247974446e-108
2.93247974629e-108
2.93247985002e-108
2.9324857295e-108
2.93280574681e-108
2.95015189711e-108
3.15639523353e-108
5.90447645113e-16
4.11267936049e-08
1.86467140244e-07
2.29279474704e-07
2.49552701847e-07
2.66452024837e-07
2.78818809699e-07
2.83635066061e-07
2.83990225531e-07
2.82959238757e-07
2.81604846659e-07
2.80202939317e-07
2.78806070842e-07
2.77422251602e-07
2.76058343607e-07
2.7470547891e-07
2.73362909366e-07
2.72034335028e-07
2.7071335888e-07
2.69398086958e-07
2.68080414573e-07
2.66766947544e-07
2.65456181144e-07
2.64141477558e-07
2.6290589141e-07
2.6158646293e-07
2.60266742533e-07
2.58948638888e-07
2.57628664005e-07
2.56314724326e-07
2.55011899302e-07
2.53721351908e-07
2.52447654461e-07
2.51191534972e-07
2.49963832045e-07
2.48775202129e-07
2.47707588311e-07
2.46602964737e-07
2.45551963667e-07
2.44564874853e-07
2.43645925315e-07
2.42800154484e-07
2.42032805535e-07
2.41348473202e-07
2.40750031817e-07
2.40243131232e-07
2.39831074008e-07
2.39515398365e-07
2.39296773067e-07
2.39220045162e-07
2.93247974425e-108
2.93247974425e-108
2.93247974425e-108
2.93247974425e-108
2.93247974425e-108
2.93247974425e-108
2.93247974425e-108
2.93247974425e-108
2.93247974426e-108
2.93247974426e-108
2.93247974426e-108
2.93247974426e-108
2.93247974426e-108
2.93247974435e-108
2.93247974973e-108
2.93248005727e-108
2.93249722158e-108
2.93345141915e-108
2.96226424481e-108
8.09411410152e-43
2.33836508199e-12
7.65341514001e-08
2.01273918645e-07
2.37282555966e-07
2.58340510454e-07
2.76291950707e-07
2.87691328448e-07
2.91159818624e-07
2.90688222478e-07
2.89222338858e-07
2.87536338355e-07
2.85832381897e-07
2.84158071675e-07
2.82505674506e-07
2.80884255797e-07
2.79288245676e-07
2.77711923885e-07
2.76150968815e-07
2.74682712228e-07
2.73155102916e-07
2.71636687589e-07
2.70121701177e-07
2.68617708789e-07
2.6712037732e-07
2.6562463612e-07
2.64137694924e-07
2.62656791117e-07
2.61182748803e-07
2.59714446629e-07
2.58337660105e-07
2.56895231922e-07
2.55475490915e-07
2.54080702864e-07
2.52714214318e-07
2.51380111565e-07
2.50086478869e-07
2.48844375776e-07
2.47657458791e-07
2.46532101263e-07
2.4555436828e-07
2.44566331789e-07
2.43657934592e-07
2.4283700553e-07
2.42107115426e-07
2.41471404907e-07
2.40932864909e-07
2.40494012827e-07
2.40156639273e-07
2.39921573101e-07
2.3983416709e-07
2.93247974411e-108
2.93247974411e-108
2.93247974411e-108
2.93247974411e-108
2.93247974411e-108
2.93247974411e-108
2.93247974411e-108
2.93247974411e-108
2.93247974411e-108
2.93247974411e-108
2.93247974412e-108
2.93247974412e-108
2.93247974412e-108
2.93247974439e-108
2.93247975959e-108
2.93248062474e-108
2.93252819489e-108
2.93517581615e-108
2.98625720901e-108
2.83205029731e-42
2.20910467202e-10
1.19763326925e-07
2.13979244204e-07
2.45930745145e-07
2.68363571011e-07
2.86901394175e-07
2.96752525344e-07
2.98782875412e-07
2.97648406666e-07
2.95750966221e-07
2.93723512734e-07
2.91711206055e-07
2.89739945459e-07
2.87885592871e-07
2.85994142626e-07
2.84131955961e-07
2.82306754439e-07
2.80509084367e-07
2.78731247978e-07
2.76978140061e-07
2.75243720204e-07
2.73524236973e-07
2.7182571768e-07
2.70212134415e-07
2.68538539458e-07
2.66875081891e-07
2.65220612844e-07
2.63585139549e-07
2.6196683004e-07
2.60366325918e-07
2.58785606444e-07
2.57315868065e-07
2.55795992811e-07
2.54308279815e-07
2.52867089118e-07
2.51475359088e-07
2.50138480922e-07
2.48860793608e-07
2.47650212434e-07
2.4651716704e-07
2.45466436549e-07
2.44581560224e-07
2.43708630115e-07
2.42931694078e-07
2.42254974329e-07
2.41681616097e-07
2.41213966598e-07
2.40853669287e-07
2.40601409085e-07
2.40502018256e-07
2.93247974399e-108
2.93247974399e-108
2.93247974399e-108
2.93247974399e-108
2.93247974399e-108
2.93247974399e-108
2.93247974399e-108
2.93247974399e-108
2.93247974399e-108
2.93247974399e-108
2.93247974399e-108
2.932479744e-108
2.93247974401e-108
2.93247974485e-108
2.93247979269e-108
2.93248250213e-108
2.93263e-108
2.94073379336e-108
3.05584782105e-108
2.23908688659e-22
1.58366157773e-08
1.63231838108e-07
2.25629208652e-07
2.55689235495e-07
2.79704270377e-07
2.97894669858e-07
3.05685252241e-07
3.0644769498e-07
3.04672600712e-07
3.02385198565e-07
3.00040872315e-07
2.97792940171e-07
2.95529661518e-07
2.93310562609e-07
2.91141933953e-07
2.89013283053e-07
2.86930409922e-07
2.84887606716e-07
2.8294993068e-07
2.80966704556e-07
2.79010243565e-07
2.77080765886e-07
2.75172236513e-07
2.73291049531e-07
2.71431513411e-07
2.69664274915e-07
2.67844765635e-07
2.6604401415e-07
2.64264761958e-07
2.62517252468e-07
2.60799422967e-07
2.59113451956e-07
2.57467844762e-07
2.55947944823e-07
2.54398220228e-07
2.52901136424e-07
2.51463994249e-07
2.50099439309e-07
2.48811749556e-07
2.47605982451e-07
2.46486296975e-07
2.45456626655e-07
2.44527315614e-07
2.43789837274e-07
2.43073294749e-07
2.42465261177e-07
2.4196695767e-07
2.41582055881e-07
2.41311454164e-07
2.41199433724e-07
2.93247974388e-108
2.93247974389e-108
2.93247974389e-108
2.93247974389e-108
2.93247974389e-108
2.93247974389e-108
2.93247974389e-108
2.93247974389e-108
2.93247974389e-108
2.93247974389e-108
2.93247974389e-108
2.93247974389e-108
2.93247974393e-108
2.93247974615e-108
2.93247986998e-108
2.93248675708e-108
2.93285495247e-108
2.9523200045e-108
3.18070170062e-108
4.5702558447e-15
4.32951000609e-08
1.88837566455e-07
2.37364247857e-07
2.67240069732e-07
2.9247977362e-07
3.09173238554e-07
3.14696452945e-07
3.14206409128e-07
3.11880840951e-07
3.09202408583e-07
3.0650845182e-07
3.03876835373e-07
3.01301728208e-07
2.98795794721e-07
2.96412855365e-07
2.94019590142e-07
2.91673390283e-07
2.89372313428e-07
2.87119361306e-07
2.84904086986e-07
2.82725461868e-07
2.80655841166e-07
2.78547166839e-07
2.76465832763e-07
2.7441000853e-07
2.72388605598e-07
2.70397506814e-07
2.68508695639e-07
2.66577390797e-07
2.64680866486e-07
2.62819471166e-07
2.60998933391e-07
2.59230722341e-07
2.57514925561e-07
2.55934556981e-07
2.54336599087e-07
2.52803763411e-07
2.51351609883e-07
2.4998349351e-07
2.48703810418e-07
2.47517912271e-07
2.46431465916e-07
2.45449063091e-07
2.44658169548e-07
2.4390089132e-07
2.4325809292e-07
2.4273254932e-07
2.42325263195e-07
2.42037212553e-07
2.41912537118e-07
2.93247974379e-108
2.93247974379e-108
2.9324797438e-108
2.9324797438e-108
2.9324797438e-108
2.9324797438e-108
2.9324797438e-108
2.9324797438e-108
2.9324797438e-108
2.9324797438e-108
2.9324797438e-108
2.9324797438e-108
2.93247974395e-108
2.93247975228e-108
2.9324802212e-108
2.93250587129e-108
2.93391101195e-108
2.96928589776e-108
1.29662042662e-42
9.03950719848e-12
8.66242968636e-08
2.07421314999e-07
2.49756330815e-07
2.80684465275e-07
3.06299164414e-07
3.2046544108e-07
3.2367196227e-07
3.21996264937e-07
3.1909431201e-07
3.16002445423e-07
3.12952995295e-07
3.09980022362e-07
3.07164055131e-07
3.04347416615e-07
3.01608858586e-07
2.98933416136e-07
2.96323123413e-07
2.93843683672e-07
2.91347736634e-07
2.88892624943e-07
2.86489841709e-07
2.84128366424e-07
2.81891079112e-07
2.79611736051e-07
2.77366119518e-07
2.7516357856e-07
2.72996102632e-07
2.70866417719e-07
2.68857866043e-07
2.66814350338e-07
2.64815709472e-07
2.62861055503e-07
2.60967124495e-07
2.59135806339e-07
2.57447095025e-07
2.55750127749e-07
2.54128622349e-07
2.52587374394e-07
2.51136154124e-07
2.49783287506e-07
2.48531977786e-07
2.47387282112e-07
2.4635451131e-07
2.45521296068e-07
2.44722621527e-07
2.44042624938e-07
2.43486601766e-07
2.43055341973e-07
2.42749128012e-07
2.42610788756e-07
2.93247974372e-108
2.93247974372e-108
2.93247974372e-108
2.93247974372e-108
2.93247974372e-108
2.93247974372e-108
2.93247974372e-108
2.93247974372e-108
2.93247974372e-108
2.93247974372e-108
2.93247974372e-108
2.93247974373e-108
2.93247974428e-108
2.93247977506e-108
2.93248149543e-108
2.93257414372e-108
2.93760467243e-108
3.01956666245e-108
6.81464448099e-29
4.89182556257e-09
1.38281279253e-07
2.23959519497e-07
2.63466730081e-07
2.95870647226e-07
3.20454439117e-07
3.31333840463e-07
3.32273139468e-07
3.29654229555e-07
3.26235141731e-07
3.22748499666e-07
3.19409779001e-07
3.16101944264e-07
3.12887352263e-07
3.09768023185e-07
3.06803027605e-07
3.03846738748e-07
3.00968462649e-07
2.98155954385e-07
2.95484683882e-07
2.92802979052e-07
2.90176938469e-07
2.87597230538e-07
2.85076266828e-07
2.82678462915e-07
2.80245714056e-07
2.77863352511e-07
2.75523924288e-07
2.73233109459e-07
2.71075356303e-07
2.68882891569e-07
2.66746750029e-07
2.6466639529e-07
2.62647418823e-07
2.60701497937e-07
2.58912073197e-07
2.57116091661e-07
2.55399257623e-07
2.53774992929e-07
2.52250535547e-07
2.50828309277e-07
2.49513874908e-07
2.48313252123e-07
2.4731291987e-07
2.46350073156e-07
2.45510527758e-07
2.44796071915e-07
2.44211047231e-07
2.43756297777e-07
2.43431718142e-07
2.43279400922e-07
2.93247974365e-108
2.93247974365e-108
2.93247974365e-108
2.93247974365e-108
2.93247974365e-108
2.93247974365e-108
2.93247974365e-108
2.93247974365e-108
2.93247974365e-108
2.93247974365e-108
2.93247974365e-108
2.93247974369e-108
2.9324797456e-108
2.93247985131e-108
2.9324856754e-108
2.93279463056e-108
2.94906010642e-108
3.14563947813e-108
4.5859991381e-17
3.27332778577e-08
1.82170719077e-07
2.40140491406e-07
2.79223942994e-07
3.12450174194e-07
3.34246794486e-07
3.41500762815e-07
3.40473907333e-07
3.37046038846e-07
3.33236635666e-07
3.29377667305e-07
3.25623336251e-07
3.21983293365e-07
3.18524242365e-07
3.15097337952e-07
3.11775544183e-07
3.0861552405e-07
3.05465806482e-07
3.02402498824e-07
2.99410736997e-07
2.96572657532e-07
2.93720606751e-07
2.90931834448e-07
2.88209011613e-07
2.85618900395e-07
2.83000641448e-07
2.80443192952e-07
2.77940365354e-07
2.75490609957e-07
2.73184274217e-07
2.70854229617e-07
2.68578971683e-07
2.66374928482e-07
2.64244109501e-07
2.62271990232e-07
2.60291847612e-07
2.58397174973e-07
2.56596884551e-07
2.54894675002e-07
2.53295694106e-07
2.51807258069e-07
2.50516246465e-07
2.49259662645e-07
2.48125488326e-07
2.47117635961e-07
2.46240252408e-07
2.45495209398e-07
2.44884098997e-07
2.44407646566e-07
2.44065856174e-07
2.43899033983e-07
2.93247974358e-108
2.93247974358e-108
2.93247974358e-108
2.93247974358e-108
2.93247974358e-108
2.93247974359e-108
2.93247974359e-108
2.93247974359e-108
2.93247974359e-108
2.93247974359e-108
2.93247974359e-108
2.93247974374e-108
2.93247975207e-108
2.93248021406e-108
2.93250516016e-108
2.93384926552e-108
2.96890795924e-108
1.15100781109e-42
5.38964228728e-12
7.91918898706e-08
2.07339319195e-07
2.57428366728e-07
2.97346660625e-07
3.30032952585e-07
3.47538794879e-07
3.51002756008e-07
3.4841270824e-07
3.44274689767e-07
3.3994646254e-07
3.35711721901e-07
3.31675202004e-07
3.27707086089e-07
3.23862800733e-07
3.20209371442e-07
3.16599996889e-07
3.13093667533e-07
3.09758492468e-07
3.06447147228e-07
3.03215077576e-07
3.00074647685e-07
2.97084568759e-07
2.94085426636e-07
2.91163627566e-07
2.88385425685e-07
2.85594669845e-07
2.82864232775e-07
2.80197160877e-07
2.77600855046e-07
2.75144077483e-07
2.72677797185e-07
2.70281708848e-07
2.67958969449e-07
2.6571514343e-07
2.63638620341e-07
2.61564586237e-07
2.5957741917e-07
2.57694904759e-07
2.5591679694e-07
2.54249796334e-07
2.52786097314e-07
2.51353420045e-07
2.50041752362e-07
2.48857313736e-07
2.47807500757e-07
2.46893642206e-07
2.46117270085e-07
2.45479472508e-07
2.44980761566e-07
2.44620516669e-07
2.4443742268e-07
2.93247974353e-108
2.93247974353e-108
2.93247974353e-108
2.93247974353e-108
2.93247974353e-108
2.93247974353e-108
2.93247974353e-108
2.93247974353e-108
2.93247974353e-108
2.93247974353e-108
2.93247974354e-108
2.93247974424e-108
2.93247978221e-108
2.93248186341e-108
2.93259190483e-108
2.93844345056e-108
3.03053518158e-108
9.65609991097e-29
6.32424532005e-09
1.3948316132e-07
2.29117602205e-07
2.76580494873e-07
3.1753677956e-07
3.47300012466e-07
3.59527600007e-07
3.59710528639e-07
3.55819716478e-07
3.51092311777e-07
3.46416862228e-07
3.41809983965e-07
3.37363388578e-07
3.33133401777e-07
3.28978581518e-07
3.25031930021e-07
3.21136970805e-07
3.1736950323e-07
3.13780798605e-07
3.10228449432e-07
3.0676939687e-07
3.03406541139e-07
3.00206111403e-07
2.97014791823e-07
2.93896798704e-07
2.90943080242e-07
2.87974872862e-07
2.85083900548e-07
2.82268040808e-07
2.79606670585e-07
2.76929070324e-07
2.74333862286e-07
2.71816547684e-07
2.69383496137e-07
2.67115497694e-07
2.64856989512e-07
2.62692047292e-07
2.6062735091e-07
2.58667597298e-07
2.56909438273e-07
2.55170193573e-07
2.53556003783e-07
2.52068592461e-07
2.50712424119e-07
2.49489375619e-07
2.48402739366e-07
2.47454167869e-07
2.46649228071e-07
2.46081554186e-07
2.45562533636e-07
2.45183641994e-07
2.44983260597e-07
2.93247974348e-108
2.93247974348e-108
2.93247974348e-108
2.93247974348e-108
2.93247974348e-108
2.93247974348e-108
2.93247974348e-108
2.93247974348e-108
2.93247974348e-108
2.93247974348e-108
2.93247974353e-108
2.93247974641e-108
2.93247990147e-108
2.93248822841e-108
2.93291930647e-108
2.95476097712e-108
3.03227812915e-44
5.85961001419e-15
4.1449925024e-08
1.89457512764e-07
2.50909040796e-07
2.98333001872e-07
3.38815408807e-07
3.63206437708e-07
3.6984725289e-07
3.67492273241e-07
3.62643222111e-07
3.57485359969e-07
3.52368720774e-07
3.47482057477e-07
3.42712488232e-07
3.38168536519e-07
3.33722259635e-07
3.29419064992e-07
3.25327173562e-07
3.21302757142e-07
3.17474429913e-07
3.1368560391e-07
3.10011794127e-07
3.06517062668e-07
3.03037817852e-07
2.99655777012e-07
2.96365764186e-07
2.9323247356e-07
2.90109342268e-07
2.87068990773e-07
2.8419019888e-07
2.81309751719e-07
2.78509232564e-07
2.75786510131e-07
2.73158920488e-07
2.70704760338e-07
2.68257285754e-07
2.65906545844e-07
2.6365451906e-07
2.61608008203e-07
2.59577712138e-07
2.57657575843e-07
2.55860843124e-07
2.5419405426e-07
2.52658863022e-07
2.51259917756e-07
2.5009206106e-07
2.48970044519e-07
2.47990227777e-07
2.47155312733e-07
2.46467047923e-07
2.45924978763e-07
2.45528026244e-07
2.45310049806e-07
2.93247974343e-108
2.93247974343e-108
2.93247974343e-108
2.93247974343e-108
2.93247974343e-108
2.93247974343e-108
2.93247974343e-108
2.93247974343e-108
2.93247974343e-108
2.93247974344e-108
2.93247974376e-108
2.93247976134e-108
2.93248071459e-108
2.93253084741e-108
2.93517585278e-108
2.98734899693e-108
2.42940664508e-42
6.9861472605e-11
1.02922299846e-07
2.19154798205e-07
2.74568979986e-07
3.22753758667e-07
3.59927234338e-07
3.77160582644e-07
3.78839626981e-07
3.74548730535e-07
3.68954490589e-07
3.63305890727e-07
3.57887450209e-07
3.52673251284e-07
3.47585353181e-07
3.42682638257e-07
3.38018217149e-07
3.33451131141e-07
3.29107950682e-07
3.24841537428e-07
3.20785418513e-07
3.16774909063e-07
3.12893503911e-07
3.09196948737e-07
3.05536056783e-07
3.019801515e-07
2.98598055922e-07
2.95229046415e-07
2.91953976191e-07
2.88772773585e-07
2.85756617705e-07
2.82751543488e-07
2.7983700667e-07
2.77098459085e-07
2.74364330726e-07
2.71726758913e-07
2.69183383679e-07
2.66753069555e-07
2.64521330902e-07
2.62310019246e-07
2.60212379302e-07
2.58238578234e-07
2.56394259207e-07
2.54774247779e-07
2.53196094563e-07
2.51754320502e-07
2.50453962805e-07
2.49299072185e-07
2.48291583857e-07
2.47433064097e-07
2.46722646466e-07
2.46160304487e-07
2.45745381313e-07
2.45508656098e-07
2.93247974339e-108
2.93247974339e-108
2.93247974339e-108
2.93247974339e-108
2.93247974339e-108
2.93247974339e-108
2.93247974339e-108
2.93247974339e-108
2.93247974339e-108
2.93247974343e-108
2.93247974534e-108
2.93247984795e-108
2.93248534228e-108
2.93276930564e-108
2.94727967519e-108
3.12767650325e-108
1.82112027934e-19
2.42160004821e-08
1.72187692378e-07
2.46266428059e-07
3.00762415892e-07
3.48398130319e-07
3.78849391425e-07
3.88462996538e-07
3.86298348978e-07
3.80679769689e-07
3.74594719398e-07
3.68564391457e-07
3.62811146305e-07
3.57224479178e-07
3.51905207929e-07
3.46726682982e-07
3.41803749041e-07
3.36990047872e-07
3.32411090086e-07
3.27920533701e-07
3.23649408234e-07
3.19445941214e-07
3.15367632781e-07
3.11493390367e-07
3.07662804584e-07
3.04020846972e-07
3.00404605956e-07
2.96884286731e-07
2.93475290405e-07
2.90245022755e-07
2.87030969594e-07
2.83912904718e-07
2.80974976206e-07
2.78050257035e-07
2.75223724097e-07
2.72503731006e-07
2.69979427438e-07
2.67468643545e-07
2.65076393885e-07
2.62802753026e-07
2.60652843662e-07
2.58725533414e-07
2.56833720739e-07
2.55076618795e-07
2.53457956179e-07
2.51981326956e-07