/*--------------------------------*- C++ -*----------------------------------*\
| =========                 |                                                 |
| \\      /  F ield         | foam-extend: Open Source CFD                    |
|  \\    /   O peration     | Version:     4.1                                |
|   \\  /    A nd           | Web:         http://www.foam-extend.org         |
|    \\/     M anipulation  |                                                 |
\*---------------------------------------------------------------------------*/
FoamFile
{
    version     2.0;
    format      ascii;
    class       volScalarField;
    location    "0.0008";
    object      OPlus;
}
// * * * * * * * * * * * * * * * * * * * * * * * * * * * * * * * * * * * * * //

dimensions      [0 0 0 0 0 0 0];

internalField   nonuniform List<scalar> 
8400
(
6.45488965012e-195
6.45488965016e-195
6.4548896502e-195
6.45488965023e-195
6.45488965027e-195
6.4548896503e-195
6.45488965034e-195
6.45488965037e-195
6.4548896504e-195
6.45488965043e-195
6.45488965046e-195
6.4548896505e-195
6.45488965053e-195
6.45488965055e-195
6.45488965058e-195
6.45488965061e-195
6.45488965071e-195
6.45488965484e-195
6.45488988815e-195
6.45490314717e-195
6.45562587923e-195
6.49512936425e-195
6.96816285871e-195
3.49461596234e-22
7.65624506317e-06
0.0176641265003
0.0692571836198
0.108017761052
0.128518971332
0.137473368335
0.140849261494
0.141999896834
0.142387682476
0.142586120059
0.142730022941
0.142854777745
0.142969925855
0.143079717769
0.143186484595
0.143291713595
0.143396873191
0.143503219612
0.143611793121
0.143723610527
0.143840027727
0.143940420691
0.144067502541
0.144200244157
0.144339647423
0.144485932129
0.144639196157
0.144799186189
0.144965212493
0.145136862116
0.145313281263
0.145493341827
0.145675465422
0.145858359266
0.146039765906
0.14621748587
0.146388825973
0.146551636886
0.146703824688
0.146843254413
0.146967881256
0.147075467629
0.147164192646
0.147232669276
0.147280140705
0.14738284244
6.45488963915e-195
6.45488963916e-195
6.45488963918e-195
6.45488963919e-195
6.4548896392e-195
6.45488963922e-195
6.45488963923e-195
6.45488963924e-195
6.45488963926e-195
6.45488963927e-195
6.45488963928e-195
6.4548896393e-195
6.45488963931e-195
6.45488963932e-195
6.45488963933e-195
6.45488963935e-195
6.45488963974e-195
6.45488966121e-195
6.45489089662e-195
6.45495958732e-195
6.45882831254e-195
6.54665751955e-195
6.80685995037e-73
5.12585723104e-14
0.000110993617556
0.0384308169547
0.0876107542917
0.1192120933
0.13432701961
0.140474119976
0.142604137718
0.143241790024
0.143489544806
0.14362472086
0.143740524334
0.1438527891
0.143964886311
0.144078379947
0.144193361432
0.14433174122
0.144452002328
0.144576107515
0.144704058827
0.144836349355
0.144973924251
0.145116974863
0.145265667072
0.14542023049
0.145580637724
0.145747136519
0.145919432865
0.146097676733
0.146280701994
0.146467676283
0.14665712589
0.146848238765
0.147039538271
0.147230059725
0.147417073979
0.14759848478
0.147771624626
0.14793498832
0.148086507971
0.148224655745
0.14834723737
0.148452339687
0.14853851971
0.148604700141
0.148650265275
0.148734744323
6.45488963385e-195
6.45488963386e-195
6.45488963387e-195
6.45488963388e-195
6.45488963389e-195
6.4548896339e-195
6.45488963391e-195
6.45488963391e-195
6.45488963392e-195
6.45488963393e-195
6.45488963394e-195
6.45488963395e-195
6.45488963395e-195
6.45488963396e-195
6.45488963397e-195
6.45488963401e-195
6.45488963614e-195
6.45488975843e-195
6.45489679787e-195
6.45528516446e-195
6.47702210272e-195
6.77241431291e-195
2.87070409932e-32
1.3173874258e-06
0.00859214728926
0.0610112783249
0.103933250125
0.127739531862
0.138288517673
0.142229873455
0.143460677557
0.143821581656
0.143955776859
0.144047971847
0.144134166381
0.144221491495
0.1443331504
0.144427861826
0.144527374369
0.144631511545
0.144740624787
0.144854976205
0.144975512241
0.145102014858
0.145234813525
0.145374140006
0.145519846476
0.145672301335
0.145831431613
0.145997344251
0.146169544191
0.146347086502
0.146528855743
0.146713768832
0.146900985734
0.147089646594
0.147278147582
0.147464289758
0.147645836412
0.147820924949
0.14798790516
0.148145045962
0.148290679857
0.148422470239
0.148538744949
0.148638060817
0.14871904802
0.148781067077
0.148823673555
0.148895823328
6.45488963062e-195
6.45488963062e-195
6.45488963063e-195
6.45488963063e-195
6.45488963064e-195
6.45488963065e-195
6.45488963065e-195
6.45488963066e-195
6.45488963066e-195
6.45488963067e-195
6.45488963068e-195
6.45488963068e-195
6.45488963069e-195
6.45488963069e-195
6.4548896307e-195
6.45488963085e-195
6.4548896394e-195
6.45489013643e-195
6.45491844592e-195
6.45651186832e-195
6.51414971945e-195
1.9031445242e-73
5.02350138412e-17
2.93117557088e-05
0.0275668847668
0.0792127974217
0.114850249809
0.132710804949
0.140156489121
0.142739618996
0.14350859514
0.14376143467
0.143879051517
0.143973667036
0.144065005073
0.144156922243
0.144272140502
0.144369568939
0.144471294863
0.144577401776
0.144688377617
0.14480470224
0.144927160407
0.145056080115
0.145191539229
0.145333742615
0.145482529045
0.145638003559
0.145800127785
0.145968765646
0.146143663636
0.146323475266
0.146507162738
0.146693336943
0.146881331354
0.147069933138
0.14725778542
0.147442391677
0.147621763841
0.147793935879
0.147957747705
0.148111323078
0.148253432453
0.14838158627
0.148494159838
0.148589965742
0.148668173272
0.14872791316
0.14876897868
0.148834263348
6.45488962842e-195
6.45488962843e-195
6.45488962843e-195
6.45488962844e-195
6.45488962844e-195
6.45488962844e-195
6.45488962845e-195
6.45488962845e-195
6.45488962846e-195
6.45488962846e-195
6.45488962847e-195
6.45488962847e-195
6.45488962848e-195
6.45488962848e-195
6.45488962849e-195
6.45488962908e-195
6.45488966276e-195
6.45489161552e-195
6.45500075749e-195
6.46120880728e-195
6.58064453507e-195
1.1433534884e-72
1.43676551226e-11
0.000287425950244
0.0448521467606
0.0925330811575
0.121748333791
0.135350471248
0.140735810558
0.142524354944
0.143057140657
0.143278867847
0.143411620398
0.143530073109
0.143645211047
0.143759899441
0.143875169462
0.143991393475
0.144131176648
0.144253213313
0.144379788502
0.144511129227
0.144647580761
0.144789569866
0.144937742161
0.145092429085
0.1452533909
0.145420555316
0.145593518029
0.145772229208
0.145955993324
0.14614450875
0.146336133836
0.146529883422
0.146724311334
0.146918276637
0.147110073954
0.147297967462
0.147480368284
0.147634190426
0.147799972156
0.147954626405
0.148096616403
0.148224065507
0.148335576487
0.148430224975
0.148507501584
0.148566935631
0.148608051437
0.148669988746
6.45488962684e-195
6.45488962685e-195
6.45488962685e-195
6.45488962685e-195
6.45488962686e-195
6.45488962686e-195
6.45488962686e-195
6.45488962687e-195
6.45488962687e-195
6.45488962688e-195
6.45488962688e-195
6.45488962688e-195
6.45488962689e-195
6.45488962689e-195
6.45488962693e-195
6.45488962892e-195
6.4548897438e-195
6.45489636742e-195
6.45526266757e-195
6.47581340761e-195
6.76013096092e-195
1.44549892672e-34
1.07291662652e-06
0.00769118724843
0.0595416311526
0.102257819216
0.126033872956
0.136607101244
0.140602639692
0.141884831117
0.142305531381
0.142508759212
0.142667749435
0.142816068172
0.142960584495
0.143104084027
0.143247570747
0.143392412113
0.143539074492
0.143688003188
0.143839902746
0.143995072281
0.144154645074
0.144318238843
0.144507879724
0.144682286412
0.144841708051
0.145027911854
0.145218810407
0.145414594913
0.145614228355
0.14581698054
0.146021850756
0.146228360471
0.146434842465
0.146639571155
0.14684066807
0.147036344922
0.147225482563
0.14740643739
0.147577568158
0.147736899535
0.147882524802
0.148012998337
0.1481268826
0.148223370866
0.148302063318
0.148362331652
0.148403833838
0.148463428266
6.45488962566e-195
6.45488962566e-195
6.45488962567e-195
6.45488962567e-195
6.45488962567e-195
6.45488962568e-195
6.45488962568e-195
6.45488962568e-195
6.45488962568e-195
6.45488962569e-195
6.45488962569e-195
6.45488962569e-195
6.4548896257e-195
6.4548896257e-195
6.45488962579e-195
6.45488963045e-195
6.45488989625e-195
6.45490502635e-195
6.45573153087e-195
6.50069771146e-195
7.03348741343e-195
4.47865913698e-20
1.13339904627e-05
0.0202075722746
0.0716521864364
0.109172711909
0.128577166212
0.136881390053
0.139902522647
0.14087867859
0.141260264063
0.141488297136
0.141685201047
0.141872207104
0.142055099797
0.142235696206
0.142416204076
0.142596362052
0.142776840801
0.142957446284
0.143140019244
0.143325328995
0.143514785932
0.14370781645
0.143904485688
0.144104811442
0.144309477407
0.144518634291
0.144732022023
0.144949127058
0.145170068554
0.145392933184
0.145616328819
0.145839279341
0.146060907882
0.146280274581
0.14649478326
0.146702443968
0.146901846762
0.147091679884
0.147271269629
0.147439214317
0.147569929581
0.147706550637
0.147825244974
0.147925686951
0.148007511001
0.148070365309
0.148113781699
0.148172977763
6.45488962475e-195
6.45488962475e-195
6.45488962475e-195
6.45488962475e-195
6.45488962476e-195
6.45488962476e-195
6.45488962476e-195
6.45488962476e-195
6.45488962477e-195
6.45488962477e-195
6.45488962477e-195
6.45488962477e-195
6.45488962478e-195
6.45488962478e-195
6.45488962504e-195
6.45488963981e-195
6.45489049323e-195
6.45493839907e-195
6.45763480546e-195
6.53111600391e-195
4.32055181394e-73
2.98726893908e-15
5.92815498757e-05
0.0325187668194
0.0816074218052
0.114035502679
0.129919919167
0.136498280423
0.138842100655
0.139621620894
0.140000251328
0.140264329344
0.140505103752
0.140736994228
0.140963547656
0.141186575523
0.14140841383
0.141628533805
0.141847100375
0.142065212718
0.14228424881
0.142505941492
0.142729660254
0.14295477232
0.143182251425
0.14341320887
0.143648295008
0.143886522956
0.144126439222
0.144368819503
0.144613109381
0.144858530621
0.145082856861
0.145327589823
0.145568899448
0.145805272829
0.146035691384
0.146258888215
0.146472734332
0.146675559062
0.146865491128
0.147041596552
0.147202139071
0.147345680318
0.147470714706
0.14757645001
0.147662385293
0.147728087694
0.147773177481
0.147831853738
6.45488962402e-195
6.45488962402e-195
6.45488962403e-195
6.45488962403e-195
6.45488962403e-195
6.45488962403e-195
6.45488962404e-195
6.45488962404e-195
6.45488962404e-195
6.45488962404e-195
6.45488962405e-195
6.45488962405e-195
6.45488962405e-195
6.45488962406e-195
6.45488962475e-195
6.45488966434e-195
6.45489195683e-195
6.45501997512e-195
6.46228671111e-195
6.59652681666e-195
1.31935540229e-72
1.29251922238e-10
0.000333237724624
0.0442830562312
0.0899447349349
0.117538228768
0.130431466027
0.135650863211
0.13748383927
0.138163336534
0.138537479888
0.138867849679
0.139157469601
0.139437920382
0.139712533876
0.1399826776
0.140248792257
0.140511725152
0.140772340119
0.141031385767
0.141290473492
0.141551357976
0.141791763737
0.142053427959
0.142316378879
0.142582727488
0.142850709022
0.143118692756
0.143388426203
0.143660100932
0.143932155073
0.144204043005
0.144473810645
0.144739548928
0.145001026377
0.145258193035
0.14550853088
0.145748981984
0.14597776583
0.146194539021
0.146376790909
0.146565076176
0.146735896987
0.146888084603
0.147020373516
0.147132233297
0.147223181352
0.147292714751
0.147340491568
0.147399180248
6.45488962344e-195
6.45488962344e-195
6.45488962344e-195
6.45488962344e-195
6.45488962345e-195
6.45488962345e-195
6.45488962345e-195
6.45488962345e-195
6.45488962345e-195
6.45488962346e-195
6.45488962346e-195
6.45488962346e-195
6.45488962346e-195
6.4548896235e-195
6.45488962541e-195
6.45488973516e-195
6.45489602576e-195
6.45524218812e-195
6.47452679957e-195
6.747295026e-195
1.0291706911e-34
7.38531248012e-07
0.00578651798285
0.0554582318334
0.0967076475766
0.119897454818
0.130384137629
0.134487219501
0.135951841489
0.136552692211
0.13695407235
0.137309696918
0.137649315254
0.137979702567
0.138303155959
0.138621123178
0.138935173799
0.139244449322
0.139549916803
0.139853802479
0.140156176799
0.140457052037
0.140757414654
0.141057693257
0.141358942023
0.141661797032
0.14196418106
0.142266136408
0.142569264727
0.142872600081
0.143174776237
0.143453608903
0.143750032904
0.144041157077
0.144326741369
0.144605366027
0.144875751708
0.145135018202
0.145381478115
0.145614403419
0.145832785874
0.146034462274
0.146216835082
0.146378102052
0.146518175672
0.146637127614
0.146734332732
0.146808369944
0.146858438674
0.146916234693
6.45488962296e-195
6.45488962296e-195
6.45488962296e-195
6.45488962296e-195
6.45488962297e-195
6.45488962297e-195
6.45488962297e-195
6.45488962297e-195
6.45488962297e-195
6.45488962297e-195
6.45488962298e-195
6.45488962298e-195
6.45488962298e-195
6.45488962306e-195
6.45488962743e-195
6.45488987555e-195
6.45490393845e-195
6.45566937553e-195
6.49715896522e-195
6.99046446832e-195
1.86863469929e-21
7.41619066901e-06
0.0163427228523
0.065486447586
0.102035807151
0.121261417536
0.129716217468
0.13298726086
0.134193172899
0.134780104211
0.135225722957
0.13563467076
0.136029479094
0.136415234083
0.136791263853
0.137160942017
0.137524792426
0.137882224685
0.138235064774
0.138583981729
0.138931647506
0.13927641385
0.139618974772
0.139961847108
0.140280868246
0.140622164911
0.140961438105
0.141299086113
0.141637031899
0.141973094653
0.142305895382
0.142635045609
0.142959170882
0.143278237444
0.143589863897
0.143892184703
0.144161189164
0.144442169113
0.144708265472
0.144957705018
0.145190404453
0.145405120637
0.145599637848
0.145772256073
0.145922373425
0.146049163815
0.146152081578
0.146230486913
0.146283906751
0.146342893215
6.45488962256e-195
6.45488962256e-195
6.45488962256e-195
6.45488962256e-195
6.45488962257e-195
6.45488962257e-195
6.45488962257e-195
6.45488962257e-195
6.45488962257e-195
6.45488962257e-195
6.45488962258e-195
6.45488962258e-195
6.45488962258e-195
6.45488962281e-195
6.45488963566e-195
6.45489037126e-195
6.45493142592e-195
6.45721373438e-195
6.52613002377e-195
3.25820604947e-73
5.50385742414e-16
3.94795179584e-05
0.0277021060747
0.0746598118254
0.106078238085
0.121885132093
0.12862223578
0.131205213529
0.132258702404
0.132859155008
0.133360592388
0.133833235103
0.134287989077
0.134732899833
0.135166099146
0.135589802852
0.136005899688
0.136416374276
0.136798985385
0.137196957867
0.137590032884
0.137981095182
0.138367968995
0.138752317738
0.139135501579
0.139515432635
0.139892675491
0.140267012092
0.140640711669
0.140988318009
0.141355000444
0.141715551372
0.142069588003
0.142415640797
0.142753278228
0.143080807902
0.143395377219
0.143695985637
0.143981502004
0.144226695083
0.144477193646
0.144706779224
0.144914065466
0.145098022266
0.145257808848
0.14539262403
0.145501716522
0.145584469208
0.145640679986
0.145699583311
6.45488962222e-195
6.45488962222e-195
6.45488962222e-195
6.45488962223e-195
6.45488962223e-195
6.45488962223e-195
6.45488962223e-195
6.45488962223e-195
6.45488962223e-195
6.45488962224e-195
6.45488962224e-195
6.45488962224e-195
6.45488962225e-195
6.45488962289e-195
6.45488965924e-195
6.45489172858e-195
6.45500550978e-195
6.46133825322e-195
6.58351787193e-195
1.09703111701e-72
4.63135387174e-12
0.000202189428309
0.0392668147817
0.082644745891
0.109123096654
0.121849125528
0.127169619201
0.12924257972
0.130181292026
0.130817523678
0.131381221419
0.131918050893
0.132438493064
0.132923328404
0.133417255108
0.133901262364
0.134372815062
0.134835716631
0.135292200925
0.135740887991
0.136183370359
0.136620955599
0.137053368388
0.137461460556
0.137886364257
0.138307266499
0.138725836556
0.13913907148
0.139547840051
0.139952070651
0.14035255664
0.140721978968
0.141106823002
0.141482658843
0.141847088195
0.142198779862
0.142536439326
0.14285960203
0.143166014865
0.143452432913
0.143718546865
0.143939411649
0.14416022522
0.144355968812
0.144526067933
0.144669198901
0.144784731568
0.144872400106
0.144932308935
0.144992770662
6.45488962193e-195
6.45488962193e-195
6.45488962194e-195
6.45488962194e-195
6.45488962194e-195
6.45488962194e-195
6.45488962194e-195
6.45488962194e-195
6.45488962194e-195
6.45488962195e-195
6.45488962195e-195
6.45488962195e-195
6.45488962199e-195
6.454889624e-195
6.45488973842e-195
6.45489621902e-195
6.45524901352e-195
6.47463216512e-195
6.74996898003e-195
8.80712330733e-35
5.82008053567e-07
0.00418615100668
0.0507332341291
0.0893639604013
0.111197230615
0.121277143062
0.125459123101
0.12712172003
0.128008780086
0.128686720195
0.129311092689
0.129893401969
0.130477263797
0.131047024062
0.131601612609
0.132143839092
0.132673188924
0.133192165522
0.133681354535
0.134183611523
0.134677393311
0.135163711343
0.135644683579
0.136118571149
0.136586499516
0.137029304984
0.137487792312
0.13794060963
0.138388030607
0.138827481692
0.13925997111
0.139685008539
0.140101187429
0.140482739241
0.140875121901
0.141253029327
0.141615771666
0.141960428687
0.142286189282
0.142591356065
0.142874390833
0.143133868074
0.143368387015
0.143551156545
0.14373199058
0.1438834824
0.144006303383
0.144099603261
0.144163159832
0.144224035441
6.45488962169e-195
6.45488962169e-195
6.45488962169e-195
6.45488962169e-195
6.45488962169e-195
6.45488962169e-195
6.45488962169e-195
6.45488962169e-195
6.4548896217e-195
6.4548896217e-195
6.4548896217e-195
6.4548896217e-195
6.4548896218e-195
6.4548896271e-195
6.45488992328e-195
6.45490639628e-195
6.45578706867e-195
6.50234477789e-195
7.04860217199e-195
2.74424708575e-20
8.35608665008e-06
0.0154705507724
0.0613462903816
0.0946906111542
0.112303107051
0.120193517964
0.123454269689
0.124852734461
0.125717745843
0.126450853871
0.127144222165
0.127812238455
0.128462985403
0.129095253181
0.129692311853
0.130293966896
0.130882523474
0.131459460016
0.132023064319
0.132576986259
0.133122685501
0.133638396711
0.134166445054
0.134687417032
0.135202468875
0.135708264563
0.136208710915
0.136679796207
0.137165081125
0.137640995584
0.13810862096
0.138566811769
0.139012813829
0.139446688247
0.139843498492
0.140247676472
0.140634463485
0.141001496935
0.141347790377
0.14167168205
0.141971103386
0.142244428268
0.142492087211
0.142688199657
0.142879308673
0.143039896254
0.143169465258
0.143267561102
0.143334297415
0.143395350831
6.45488962147e-195
6.45488962147e-195
6.45488962147e-195
6.45488962147e-195
6.45488962147e-195
6.45488962148e-195
6.45488962148e-195
6.45488962148e-195
6.45488962148e-195
6.45488962148e-195
6.45488962148e-195
6.45488962149e-195
6.45488962184e-195
6.45488964177e-195
6.45489076336e-195
6.45495211481e-195
6.45831301672e-195
6.54292484536e-195
5.16099626168e-73
5.88053419219e-15
5.564400249e-05
0.0280296660678
0.0708820421522
0.0986755499248
0.112553333119
0.118660184199
0.121207676239
0.122461529777
0.123356049651
0.12415898842
0.124924193981
0.125665772656
0.126362859705
0.127062484355
0.127741804882
0.128405440217
0.129053449903
0.129664997747
0.130285046667
0.130894041682
0.131490307376
0.132078048981
0.1326316827
0.133200122159
0.13375994228
0.134309043669
0.134850618156
0.13538499714
0.135885637121
0.13639934526
0.136901033397
0.137393284754
0.137870818356
0.138333824297
0.138757899109
0.139187638207
0.13959779003
0.139987765008
0.140354903655
0.140696964649
0.141013403163
0.141302525529
0.141563496621
0.141769691896
0.141970509095
0.142139657581
0.142276414169
0.142380391111
0.142451429933
0.142513809057
6.45488962128e-195
6.45488962128e-195
6.45488962128e-195
6.45488962128e-195
6.45488962128e-195
6.45488962129e-195
6.45488962129e-195
6.45488962129e-195
6.45488962129e-195
6.45488962129e-195
6.45488962129e-195
6.45488962132e-195
6.45488962263e-195
6.45488969624e-195
6.45489381113e-195
6.45511541301e-195
6.46714774114e-195
6.66318947234e-195
8.54322431757e-47
2.2395521456e-08
0.000536789836728
0.04091594297
0.0790147225981
0.101417367569
0.112111646355
0.116781814413
0.118832177728
0.119994216501
0.120934799317
0.121809086811
0.122628821114
0.123441274933
0.124229842214
0.124995965592
0.12572054214
0.12644758964
0.127154068371
0.127846793824
0.128501677028
0.129163001496
0.129810599629
0.130449018202
0.131073412964
0.131665775254
0.132270962644
0.132863471613
0.133446739946
0.134020281157
0.134557835881
0.13510872673
0.13564556876
0.136169490594
0.136678702052
0.137171365337
0.137621555502
0.138077213592
0.138512122599
0.138923837162
0.139310414718
0.139670992739
0.140004004605
0.140308671698
0.140557878178
0.140800705463
0.141010634088
0.141188089248
0.141331570841
0.141440766183
0.141515698252
0.141578978564
6.45488962111e-195
6.45488962111e-195
6.45488962111e-195
6.45488962112e-195
6.45488962112e-195
6.45488962112e-195
6.45488962112e-195
6.45488962112e-195
6.45488962112e-195
6.45488962112e-195
6.45488962112e-195
6.45488962121e-195
6.45488962578e-195
6.45488987862e-195
6.45490380905e-195
6.455642787e-195
6.49454755305e-195
6.9647381907e-195
4.45197951839e-23
3.97512810041e-06
0.0100897327951
0.0531763990928
0.085451052426
0.102992657886
0.1111070041
0.114639195703
0.11635080328
0.117488236561
0.118464387285
0.119409561159
0.120320476884
0.121203917246
0.122039727015
0.122872687809
0.123681678598
0.124448383931
0.125217776338
0.125965971821
0.126699489625
0.127392921612
0.128094923714
0.128781759195
0.129454848672
0.130092336379
0.130743023312
0.131378266151
0.132002029595
0.132615251449
0.133190034193
0.133775393505
0.134347515769
0.134903072292
0.135442392428
0.135938591683
0.136441781984
0.136922659017
0.137379896231
0.137812639751
0.138219587783
0.138598957489
0.138923872165
0.139243815597
0.139530831465
0.139784414752
0.140003931517
0.140188826933
0.140338381284
0.140452310125
0.140530589651
0.140594431389
6.45488962096e-195
6.45488962096e-195
6.45488962097e-195
6.45488962097e-195
6.45488962097e-195
6.45488962097e-195
6.45488962097e-195
6.45488962097e-195
6.45488962097e-195
6.45488962097e-195
6.45488962098e-195
6.45488962134e-195
6.45488964127e-195
6.45489074629e-195
6.4549504139e-195
6.45816532781e-195
6.54202086876e-195
4.58692213149e-73
2.34778796038e-15
4.1577622443e-05
0.0238729243928
0.0639761626803
0.0901637534412
0.103445978241
0.109516841182
0.112269345243
0.113762581263
0.114923143437
0.115988488154
0.117007655988
0.117972165876
0.118924935686
0.119850319651
0.120726557883
0.121598538598
0.122447832464
0.12325413966
0.124059659564
0.124847726273
0.125616543393
0.12634625409
0.127084565908
0.127805474522
0.128489350103
0.129182627706
0.12986083485
0.130525590989
0.131175893742
0.131788583162
0.132409560443
0.133013639385
0.133599699719
0.134168652679
0.134692598137
0.135220750331
0.135727090046
0.136207198297
0.136660467312
0.13708648285
0.137456358235
0.137822998891
0.138157027286
0.138457511918
0.138722438148
0.138951426228
0.139144153087
0.139300340789
0.139419497435
0.139501595385
0.139566195757
6.45488962083e-195
6.45488962083e-195
6.45488962083e-195
6.45488962083e-195
6.45488962083e-195
6.45488962083e-195
6.45488962084e-195
6.45488962084e-195
6.45488962084e-195
6.45488962084e-195
6.45488962087e-195
6.45488962252e-195
6.45488971336e-195
6.45489469129e-195
6.45515789513e-195
6.46915398229e-195
6.68942465135e-195
1.19014501068e-46
4.55190715031e-08
0.000511650505882
0.0381547403258
0.0728877791251
0.0931958818796
0.103049606656
0.107549476212
0.109748309486
0.111156732821
0.112364696564
0.11348178023
0.114575645354
0.11563297631
0.116636262255
0.117629400212
0.118570794469
0.119506129297
0.120414093047
0.121277767683
0.122138934035
0.12297935174
0.123800629663
0.12458069776
0.125364794525
0.126134161683
0.126860861947
0.127598499074
0.128318065422
0.12902178377
0.129685240781
0.130359271394
0.131013511725
0.131649693027
0.132266745909
0.132838701595
0.133414529093
0.133967132943
0.134495149329
0.134998081366
0.135444276515
0.135890008486
0.136303560058
0.136684285341
0.137030953567
0.13734273604
0.137617490105
0.137855241215
0.138056194385
0.138190240891
0.138315521631
0.138401498091
0.138466613493
6.45488962071e-195
6.45488962071e-195
6.45488962071e-195
6.45488962071e-195
6.45488962071e-195
6.45488962071e-195
6.45488962072e-195
6.45488962072e-195
6.45488962072e-195
6.45488962072e-195
6.45488962085e-195
6.45488962772e-195
6.4548899986e-195
6.4549099155e-195
6.45594099451e-195
6.50818324641e-195
1.2371167462e-74
3.55924602435e-20
7.22538453302e-06
0.011526973026
0.0511828685325
0.0795795542254
0.0947547693638
0.10195614092
0.105334477496
0.107169512918
0.108558386346
0.109805198393
0.111012326356
0.112158389224
0.113283680166
0.114354941911
0.115410642664
0.116436988338
0.117410882265
0.11837829437
0.119297339588
0.120213827869
0.121106129169
0.121954703732
0.122806420348
0.123637125656
0.124448712181
0.125220615183
0.125997192822
0.126756803386
0.127473977039
0.128198126886
0.128903939485
0.129593024502
0.130260748375
0.130880905097
0.131505985239
0.132106730583
0.1326857051
0.13320750896
0.133729855388
0.134223630303
0.134685320573
0.135113753098
0.13550866084
0.135869070339
0.136163421882
0.136449232761
0.136695782058
0.136903374559
0.137071746363
0.137200579877
0.137289835142
0.137355654225
6.4548896206e-195
6.4548896206e-195
6.4548896206e-195
6.4548896206e-195
6.4548896206e-195
6.45488962061e-195
6.45488962061e-195
6.45488962061e-195
6.45488962061e-195
6.45488962062e-195
6.4548896214e-195
6.45488966345e-195
6.45489194349e-195
6.45501185423e-195
6.46133834084e-195
6.58612927747e-195
9.40640638752e-73
3.09553040146e-13
9.21727306735e-05
0.0270660333374
0.0621899115294
0.0840596661304
0.0950552493168
0.100274793552
0.102878080922
0.104545177486
0.105962371553
0.107292221491
0.108551311642
0.109766151444
0.110958376152
0.112112986778
0.113211205946
0.114296893951
0.115328374134
0.116352029637
0.117323732708
0.118293893332
0.119236669938
0.120133541334
0.121030835504
0.121905851693
0.122737055501
0.1235739556
0.12438908667
0.125186244995
0.125939759666
0.126698172783
0.127437357682
0.128128339311
0.128824994819
0.12949892539
0.130151091571
0.13077726889
0.13134874293
0.131920293115
0.132461868533
0.132971186247
0.133450144509
0.133865465124
0.134274361116
0.134645382945
0.134978172974
0.135272225415
0.135527008475
0.135741594251
0.135915829129
0.136049313611
0.136142077108
0.13620843086
6.4548896205e-195
6.4548896205e-195
6.4548896205e-195
6.45488962051e-195
6.45488962051e-195
6.45488962051e-195
6.45488962051e-195
6.45488962051e-195
6.45488962051e-195
6.4548896206e-195
6.45488962516e-195
6.45488987059e-195
6.45490301227e-195
6.45558221332e-195
6.49028900808e-195
6.92177324205e-195
9.73151737751e-27
1.75393393952e-06
0.00433295255767
0.0419710933107
0.0706660227749
0.0866239590984
0.0944453687817
0.0982240857253
0.100349615117
0.10196257313
0.103409758451
0.104807616954
0.10613402321
0.107433911613
0.10867079343
0.109887177648
0.111043082276
0.112185283576
0.113270888957
0.11434757941
0.11537050883
0.116387250683
0.117379286534
0.118319823853
0.119261684866
0.120155118264
0.121051944452
0.121927867799
0.122781356996
0.123587333987
0.124398815926
0.12518948537
0.125932611931
0.126679478847
0.127403002443
0.128102879363
0.128748191837
0.129399515664
0.130019274672
0.130609313413
0.131169068184
0.131665536107
0.132159117595
0.132616465183
0.133037162197
0.13341908648
0.133761536065
0.134065079107
0.134296923946
0.13451892284
0.134698856875
0.134836997611
0.134933359863
0.13500039595
6.45488962041e-195
6.45488962041e-195
6.45488962041e-195
6.45488962042e-195
6.45488962042e-195
6.45488962042e-195
6.45488962042e-195
6.45488962042e-195
6.45488962043e-195
6.45488962101e-195
6.4548896522e-195
6.45489132197e-195
6.45497832192e-195
6.45949956675e-195
6.56238879038e-195
6.16233102139e-73
9.48570534049e-15
4.47393927586e-05
0.0203976963057
0.0544732779082
0.0762601159668
0.0875401536262
0.0930472727764
0.0959083694095
0.0978137313546
0.0994156725992
0.100918793221
0.102381697788
0.103773066578
0.105136346523
0.106432883079
0.107707414221
0.108919158225
0.110090993546
0.111249203514
0.112375804825
0.113444259419
0.114509375935
0.115519382552
0.116526864554
0.117508623009
0.11844220911
0.119376925989
0.120261238649
0.121149860849
0.122015229987
0.122860692062
0.123654139773
0.124452009418
0.125225072273
0.125945330217
0.126668959005
0.127365274233
0.128034203522
0.128642621093
0.129251305443
0.129826394959
0.130367867997
0.130873985774
0.131343642892
0.131742217213
0.132135299827
0.132487410923
0.132798504034
0.133067749542
0.133294550614
0.133478849731
0.133620962503
0.133720724154
0.133788772435
6.45488962033e-195
6.45488962033e-195
6.45488962033e-195
6.45488962033e-195
6.45488962033e-195
6.45488962033e-195
6.45488962034e-195
6.45488962034e-195
6.45488962042e-195
6.45488962457e-195
6.45488984487e-195
6.45490149023e-195
6.45549644583e-195
6.48553124684e-195
6.87336077624e-195
1.53106228454e-31
8.63142159706e-07
0.0018275898634
0.0364220236135
0.0639310762196
0.079472785739
0.0872428735261
0.0911729578197
0.0934962693111
0.0953078983466
0.0969466250789
0.0985291210245
0.100033760631
0.101485059985
0.102902852611
0.104254708649
0.105561841148
0.106846299362
0.108067256799
0.109276144627
0.110421331692
0.111559892453
0.112640190683
0.113715745397
0.11476230843
0.11575576329
0.1167505751
0.117692336781
0.118636346271
0.119557005888
0.120424462457
0.121299420116
0.12214730571
0.122970720458
0.123739167349
0.124511430889
0.125256924924
0.125942867411
0.126630699244
0.127286191131
0.127909307898
0.128499000597
0.129020943534
0.129538596174
0.130017801544
0.130458542957
0.130859117129
0.131219126929
0.131503959323
0.131780054557
0.132012400835
0.132201091239
0.132346700676
0.132449753367
0.132518459925
6.45488962025e-195
6.45488962025e-195
6.45488962026e-195
6.45488962026e-195
6.45488962026e-195
6.45488962026e-195
6.45488962026e-195
6.45488962027e-195
6.45488962094e-195
6.45488965629e-195
6.45489151656e-195
6.45498686278e-195
6.45985316441e-195
6.56806149897e-195
6.36600009217e-73
9.29761457585e-15
4.00671656132e-05
0.017988220104
0.0497833080872
0.0700867128331
0.0807149855984
0.0860885736938
0.0890393327917
0.0911023831628
0.0928917437502
0.0945795948953
0.0961982680675
0.0977773715843
0.099280312572
0.100730619471
0.102153564227
0.103505781657
0.104835118952
0.106102838412
0.107328539163
0.108542705894
0.109694452544
0.110837918308
0.111951802558
0.113007903161
0.114061889861
0.11505993491
0.116059988152
0.117034143465
0.117954940726
0.11887829613
0.119776440605
0.120618816091
0.121465928849
0.122286065879
0.123045374525
0.123810046855
0.124544218559
0.125247806065