/*--------------------------------*- C++ -*----------------------------------*\
| =========                 |                                                 |
| \\      /  F ield         | foam-extend: Open Source CFD                    |
|  \\    /   O peration     | Version:     4.1                                |
|   \\  /    A nd           | Web:         http://www.foam-extend.org         |
|    \\/     M anipulation  |                                                 |
\*---------------------------------------------------------------------------*/
FoamFile
{
    version     2.0;
    format      ascii;
    class       volScalarField;
    location    "0.0008";
    object      p;
}
// * * * * * * * * * * * * * * * * * * * * * * * * * * * * * * * * * * * * * //

dimensions      [1 -1 -2 0 0 0 0];

internalField   nonuniform List<scalar> 
8400
(
66.7281849907
66.7281849908
66.7281849908
66.7281849909
66.7281849909
66.7281849909
66.728184991
66.728184991
66.7281849911
66.7281849911
66.7281849912
66.7281849912
66.7281849912
66.7281849913
66.7281849913
66.7281849914
66.7281849915
66.7281849969
66.728185303
66.7282026993
66.7291509483
66.7809808604
67.4016168483
649.364455137
3293.72245725
15907.6772956
45974.7899346
101391.570201
171758.0407
228985.350913
257829.654575
267383.71102
269700.176201
270086.77123
270021.902972
269868.258457
269709.164693
269563.156743
269433.384184
269319.248455
269219.807471
269133.720706
269059.645694
268996.888017
268949.700997
268892.942168
268864.911564
268838.977213
268820.38338
268809.204021
268803.336462
268800.256839
268799.137205
268802.50667
268812.073842
268827.149474
268845.604446
268867.881526
268893.78796
268922.753587
268953.036244
268984.073042
269017.312478
269054.24624
269094.835831
269137.466921
269180.869356
269224.817832
269272.364528
270164.06847
66.7281849763
66.7281849763
66.7281849763
66.7281849764
66.7281849764
66.7281849764
66.7281849764
66.7281849764
66.7281849765
66.7281849765
66.7281849765
66.7281849765
66.7281849765
66.7281849765
66.7281849766
66.7281849766
66.7281849771
66.7281850053
66.7281866262
66.7282767507
66.7333526494
66.8485875478
118.448732755
1114.36746667
5558.39095438
25001.8865045
64784.4170683
129264.977261
198768.805033
245823.229467
265830.371101
271943.658236
273787.788035
274564.344663
275100.991097
275573.297266
276019.155471
276447.240254
276853.970408
277263.720974
277635.338671
277995.69576
278340.110018
278668.341458
278981.341739
279279.047282
279561.543232
279829.543937
280084.024204
280325.32516
280552.784971
280766.747971
280966.527261
281153.335801
281328.376261
281492.586056
281645.970236
281790.120527
281923.922246
282047.787755
282161.406828
282265.450906
282360.518635
282447.838111
282527.226908
282598.475168
282661.758127
282717.671897
282768.731791
283497.793039
66.7281849694
66.7281849694
66.7281849694
66.7281849694
66.7281849694
66.7281849694
66.7281849694
66.7281849694
66.7281849695
66.7281849695
66.7281849695
66.7281849695
66.7281849695
66.7281849695
66.7281849695
66.7281849696
66.7281849724
66.7281851328
66.7281943688
66.7287039189
66.7572235191
67.1447881173
393.497067756
2587.39569002
12317.1797425
38635.7905164
89822.2516962
160347.06259
223131.133017
257636.6802
269966.09999
273568.035382
274837.373034
275572.462968
276172.350919
276716.135001
277246.5314
277727.94758
278189.315868
278626.682776
279040.363361
279430.752656
279799.206972
280146.084109
280472.615003
280779.721418
281068.210818
281339.219897
281593.768025
281833.166191
282057.619303
282266.722491
282460.668798
282640.131716
282806.123934
282960.305475
283103.465559
283235.583826
283357.017807
283468.236251
283569.928093
283662.912638
283747.942482
283824.337825
283892.156588
283951.705374
284003.657338
284049.097911
284090.186181
284690.491693
66.7281849651
66.7281849651
66.7281849651
66.7281849651
66.7281849652
66.7281849652
66.7281849652
66.7281849652
66.7281849652
66.7281849652
66.7281849652
66.7281849652
66.7281849652
66.7281849652
66.7281849652
66.7281849654
66.7281849766
66.7281856288
66.7282227718
66.730313396
66.8059362115
81.0191720472
851.709699591
4188.66179175
19887.9291571
54645.3870645
115171.129033
186501.694486
239528.768175
263815.779997
271491.416704
273780.009935
274746.69375
275415.351403
275995.56894
276525.167507
277038.389355
277497.984837
277933.374336
278341.665518
278724.071291
279081.806752
279416.513315
279729.475503
280021.79283
280294.46807
280548.213764
280784.233755
281004.199246
281209.747165
281401.71739
281578.772557
281741.163834
281890.380409
282028.806814
282157.632181
282276.736661
282384.108807
282480.535192
282568.296274
282650.11994
282726.502606
282797.008194
282858.738091
282911.10349
282955.485852
282994.374342
283029.468302
283062.409935
283584.467189
66.7281849622
66.7281849622
66.7281849623
66.7281849623
66.7281849623
66.7281849623
66.7281849623
66.7281849623
66.7281849623
66.7281849623
66.7281849623
66.7281849623
66.7281849623
66.7281849623
66.7281849623
66.7281849631
66.7281850073
66.7281875694
66.7283307673
66.7364759392
66.8931796648
157.260646052
1400.83226496
6747.50853663
28448.740028
71556.6885169
138384.627773
206520.227354
249614.395571
266646.803513
271640.928989
273240.949469
274035.488471
274644.15429
275185.981827
275685.816062
276149.816992
276575.785047
276991.070295
277356.963915
277702.517808
278024.492636
278323.493564
278600.580343
278857.202682
279094.9797
279314.798476
279518.041103
279706.964608
279883.047699
280045.546608
280194.251222
280328.874243
280452.809189
280568.988911
280677.349669
280774.910261
280859.793021
280939.112943
280992.974838
281066.098271
281131.627022
281190.680059
281238.862673
281275.885889
281305.779094
281333.809804
281362.757473
281392.797685
281870.399119
66.7281849602
66.7281849602
66.7281849602
66.7281849602
66.7281849602
66.7281849602
66.7281849602
66.7281849602
66.7281849602
66.7281849602
66.7281849602
66.7281849602
66.7281849602
66.7281849602
66.7281849603
66.7281849629
66.7281851136
66.728193804
66.7286744023
66.7556376702
67.1286719429
374.909816185
2533.76129903
12006.2882681
37996.1185062
88643.9868911
158742.010232
221304.493899
255542.883044
267554.832997
270971.199438
272161.27774
272851.018349
273409.31192
273911.917125
274375.556827
274804.649897
275201.960991
275569.11856
275908.439822
276222.657707
276514.339032
276785.536441
277029.097624
277270.212135
277477.985743
277656.421307
277839.619816
278001.762299
278152.51485
278293.209272
278421.496219
278536.477531
278641.50108
278739.406036
278831.084083
278913.838404
278984.569615
279045.056846
279099.607372
279152.51419
279204.726471
279252.845117
279292.409311
279322.139157
279344.966028
279365.280536
279385.277453
279405.590171
279843.836632
66.7281849586
66.7281849586
66.7281849586
66.7281849586
66.7281849586
66.7281849586
66.7281849586
66.7281849586
66.7281849586
66.7281849587
66.7281849587
66.7281849587
66.7281849587
66.7281849587
66.7281849588
66.7281849649
66.7281853136
66.7282051648
66.7292895668
66.7882867208
67.4873248796
712.26751261
3523.91351182
16996.6055829
48438.8926732
105485.579823
176292.078306
232006.486511
258784.306434
267345.074195
269782.911824
270724.635429
271332.49905
271843.532146
272306.403475
272732.081259
273125.325597
273487.993629
273822.489327
274130.57352
274414.490401
274675.738061
274916.767768
275137.225729
275338.385584
275522.300313
275690.981529
275846.134373
275989.601817
276122.365418
276244.882918
276355.123129
276454.062242
276544.163264
276627.225772
276703.279365
276769.015239
276824.15479
276871.26519
276914.277475
276957.372406
277006.397715
277029.603446
277064.265663
277083.501774
277097.060907
277110.508483
277126.451934
277144.361142
277560.33462
66.7281849574
66.7281849574
66.7281849574
66.7281849574
66.7281849574
66.7281849574
66.7281849574
66.7281849574
66.7281849574
66.7281849574
66.7281849575
66.7281849575
66.7281849575
66.7281849575
66.7281849578
66.7281849772
66.7281860969
66.728248951
66.7317867276
66.8281965521
99.0727694713
984.472193413
4878.96763154
22534.7982423
59786.2311597
121940.909526
191303.953249
239634.151723
260294.635271
266433.932871
268231.485658
268997.478684
269533.214148
269994.194852
270412.557544
270796.568229
271151.307976
271477.600907
271777.55018
272052.903312
272305.334635
272537.380849
272750.039274
272944.381514
273121.378947
273282.177423
273428.594729
273562.138971
273685.124322
273799.205356
273903.888631
274002.32777
274069.510279
274148.034243
274214.652037
274276.593602
274332.050531
274379.111565
274417.198171
274449.466728
274479.849847
274509.729514
274536.849514
274558.006506
274571.962136
274581.211611
274589.037641
274596.959102
274604.932943
274992.217368
66.7281849565
66.7281849565
66.7281849565
66.7281849565
66.7281849565
66.7281849565
66.7281849565
66.7281849565
66.7281849565
66.7281849565
66.7281849565
66.7281849565
66.7281849565
66.7281849565
66.7281849574
66.7281850094
66.7281880172
66.7283559815
66.7378901856
66.9140177569
173.074590253
1523.35576894
7007.71826562
28986.920628
72169.5336986
138050.033539
204062.120878
244905.974455
260557.303594
264979.473951
266308.846227
266967.218741
267437.053588
267851.170698
268227.428918
268571.484036
268886.07854
269173.978797
269437.793887
269679.200145
269899.891491
270107.297991
270277.62531
270452.070001
270605.632533
270744.758225
270869.182717
270980.587477
271082.882293
271178.984749
271267.30593
271346.142467
271411.514448
271465.39113
271513.679648
271561.637176
271606.886985
271643.767598
271669.882231
271694.735191
271699.967715
271726.204156
271744.472634
271756.201628
271760.377566
271761.362742
271763.07705
271765.370997
271766.472982
272129.501757
66.7281849557
66.7281849557
66.7281849557
66.7281849557
66.7281849557
66.7281849557
66.7281849557
66.7281849557
66.7281849557
66.7281849557
66.7281849557
66.7281849557
66.7281849557
66.7281849558
66.7281849583
66.7281851023
66.7281933558
66.7286475325
66.7539495968
67.111830761
349.203675687
2448.88474669
11384.0686759
36615.7102534
85572.0377805
153651.972568
214774.870786
248288.545665
259913.433954
263064.221482
264074.255638
264612.54802
265030.156168
265397.887661
265731.298434
266034.102467
266310.110549
266561.177423
266789.717344
266998.931364
267189.448012
267362.498778
267520.209857
267664.038028
267794.504883
267911.771013
268013.862794
268102.852014
268184.64607
268261.905956
268337.900501
268384.786949
268439.794229
268479.942521
268516.867662
268551.500157
268581.724243
268601.992358
268614.823695
268627.917556
268645.632407
268662.579438
268669.119505
268662.408952
268650.837714
268645.375117
268646.734847
268645.066148
268634.3807
268961.878258
66.7281849551
66.7281849551
66.7281849551
66.7281849551
66.7281849551
66.7281849551
66.7281849551
66.7281849551
66.7281849551
66.7281849551
66.7281849551
66.7281849551
66.7281849551
66.7281849552
66.7281849609
66.7281852865
66.7282037375
66.7292080169
66.7836437657
67.4308773165
655.308298172
3305.0634564
15815.2948459
45559.2443988
99993.7429547
168547.784007
223422.102965
250114.548688
258547.903939
260793.444159
261566.803119
262014.433365
262373.637599
262691.609854
262977.047154
263235.633875
263469.690451
263680.771663
263872.22753
264044.886262
264201.676396
264342.472842
264469.162954
264590.148973
264678.697466
264777.411667
264857.42402
264925.454933
264986.756199
265042.112712
265091.608665
265134.322195
265167.837733
265194.198283
265215.664769
265240.11717
265239.884769
265255.125833
265258.357521
265259.323746
265261.291634
265263.61945
265261.615113
265252.000939
265237.056066
265220.884157
265205.980471
265190.751481
265173.093844
265483.503566
66.7281849545
66.7281849546
66.7281849546
66.7281849546
66.7281849546
66.7281849546
66.7281849546
66.7281849546
66.7281849546
66.7281849546
66.7281849546
66.7281849546
66.7281849546
66.7281849549
66.7281849717
66.7281859369
66.728239802
66.7312342681
66.8216547771
91.1256682858
925.198336747
4525.6708901
20987.691001
56124.9234751
115308.88257
182517.337472
230141.23975
250653.762237
256637.79775
258213.652711
258798.625456
259162.143203
259458.148512
259721.874046
259957.034515
260168.024668
260357.337912
260532.544031
260670.100306
260811.403338
260932.448793
261041.248148
261137.405111
261223.661329
261300.84308
261366.050762
261419.851476
261463.472504
261506.663819
261524.17289
261559.65489
261584.284789
261602.251108
261612.745694
261618.04981
261620.369428
261619.656842
261615.243282
261613.180732
261587.655421
261582.551391
261569.823917
261554.936488
261537.603471
261517.960072
261496.409014
261472.657111
261445.473715
261415.209176
261696.256649
66.7281849541
66.7281849541
66.7281849541
66.7281849541
66.7281849541
66.7281849541
66.7281849541
66.7281849541
66.7281849541
66.7281849541
66.7281849541
66.7281849541
66.7281849541
66.728184955
66.7281850027
66.7281877177
66.7283370025
66.7366457767
66.8969495802
154.028432186
1355.47330302
6468.28303882
27419.0908287
68444.9084219
131398.970768
195190.708463
234961.999147
250143.496707
254249.052694
255338.987029
255771.680043
256054.986647
256294.385332
256486.257729
256675.550133
256839.820505
256983.170384
257109.972541
257222.476162
257319.454677
257403.332545
257476.507852
257543.214984
257583.232609
257633.292356
257669.559985
257698.930522
257719.900781
257734.886869
257744.698089
257757.042869
257745.10915
257750.812449
257746.863278
257737.168533
257723.359423
257706.748397
257688.506516
257668.149957
257644.259826
257623.322659
257581.582016
257561.152132
257535.161065
257507.537247
257475.850872
257440.330894
257402.517762
257364.845663
257626.014554
66.7281849537
66.7281849537
66.7281849537
66.7281849537
66.7281849537
66.7281849537
66.7281849537
66.7281849537
66.7281849537
66.7281849537
66.7281849537
66.7281849537
66.7281849538
66.7281849564
66.7281851066
66.7281936093
66.7286564877
66.75408784
67.1153390793
340.864356257
2409.82851948
10896.6479144
35509.298156
82596.930967
147810.811346
206175.151652
237961.903247
248687.889141
251418.314481
252152.021103
252466.844746
252666.21227
252846.54705
252999.765998
253130.332543
253244.061269
253340.483876
253426.988319
253482.545425
253546.122559
253593.830238
253631.458936
253661.753304
253683.208173
253702.479628
253697.13664
253704.963942
253702.690631
253695.439961
253681.884593
253664.972548
253647.703229
253635.314439
253599.798398
253579.209926
253547.24532
253513.441565
253480.217476
253448.170326
253415.847508
253379.891426
253337.627031
253299.748083
253245.07685
253213.939256
253172.061204
253127.588554
253081.34983
253033.697317
253266.456978
66.7281849534
66.7281849534
66.7281849534
66.7281849534
66.7281849534
66.7281849534
66.7281849534
66.7281849534
66.7281849534
66.7281849534
66.7281849534
66.7281849534
66.7281849535
66.7281849605
66.7281853491
66.7282069622
66.7293624343
66.7904477278
67.5071559555
691.373958923
3408.56780549
16043.9870759
45596.5286646
98556.0731791
163979.215995
215127.384058
239257.306045
246496.315621
248232.39048
248703.007833
248910.906511
249050.092408
249163.976679
249259.178544
249321.736499
249387.302458
249435.972834
249473.689657
249499.715205
249516.612201
249529.683667
249517.209137
249517.931071
249508.131354
249493.659914
249472.945686
249453.621352
249412.786186
249386.369198
249349.922735
249310.947388
249272.120587
249233.468214
249199.865027
249142.982202
249101.016616
249051.94643
249003.868594
248957.618291
248909.932609
248857.133192
248798.842914
248746.997954
248680.687095
248639.521921
248592.884343
248541.841853
248485.212548
248426.060111
248628.817754
66.7281849531
66.7281849531
66.7281849531
66.7281849531
66.7281849531
66.7281849531
66.7281849531
66.7281849531
66.7281849531
66.7281849531
66.7281849531
66.7281849531
66.7281849536
66.7281849798
66.7281864513
66.7282669465
66.7326765638
66.8436901526
105.906422461
1020.32585131
4955.81610871
22310.4580457
58038.0280709
116052.133638
179171.060045
221773.739116
239060.277718
243707.755856
244758.004309
245030.984145
245139.662174
245210.060962
245240.037052
245276.797307
245294.302625
245301.352044
245302.470291
245277.402203
245263.044091
245238.897612
245206.334303
245176.082214
245121.290839
245082.907327
245036.36726
244984.990715
244932.445355
244884.33532
244813.796751
244760.795561
244699.259693
244639.433486
244578.970551
244524.676543
244450.383609
244393.533033
244329.696246
244265.818836
244201.452408
244136.587956
244071.051886
244003.738234
243942.251414
243862.296681
243805.598475
243744.653762
243683.230185
243620.590229
243556.561333
243736.421374
66.7281849529
66.7281849529
66.7281849529
66.7281849529
66.7281849529
66.7281849529
66.7281849529
66.7281849529
66.7281849529
66.7281849529
66.7281849529
66.7281849529
66.7281849546
66.7281850512
66.7281904501
66.7284811993
66.7442680219
67.0014814221
226.748727023
1930.07651259
7948.69966055
30538.0461249
73040.9062985
134531.441412
192597.123681
225990.558119
237618.60489
240409.70429
240987.057356
241108.737194
241116.806269
241115.550407
241096.702275
241069.568103
241015.819225
240974.165213
240919.596901
240865.678694
240787.815662
240724.334355
240652.12717
240578.603113
240506.36459
240414.2542
240340.648574
240258.594266
240176.84896
240101.101097
240004.730386
239928.982486
239845.634155
239763.629747
239683.256954
239608.511827
239512.750114
239436.844781
239356.369097
239276.885985
239197.51365
239118.515613
239039.523012
238966.376019
238873.99067
238803.47571
238727.845105
238653.377404
238579.245912
238505.414914
238432.306614
238585.356539
66.7281849527
66.7281849527
66.7281849527
66.7281849527
66.7281849527
66.7281849527
66.7281849527
66.7281849527
66.7281849527
66.7281849527
66.7281849527
66.7281849528
66.7281849588
66.7281852905
66.7282035677
66.7291731318
66.7802175044
67.3971235677
585.982113693
3062.90363371
14144.3190357
41299.5542201
90555.2212807
153080.968611
203503.454699
227863.523132
235134.230486
236683.859397
236924.454459
236925.720567
236867.829241
236795.743304
236696.472124
236610.605666
236517.481645
236402.653653
236303.995992
236196.24577
236092.893794
235967.864674
235861.552524
235749.319953
235641.161577
235514.818072
235409.768279
235297.629735
235186.706585
235084.217221
234962.556201
234861.948011
234756.71566
234651.367005
234554.359403
234439.003614
234346.683578
234248.780335
234151.083374
234054.504137
233959.481005
233871.850746
233765.879269
233681.368285
233591.656801
233502.540152
233413.98176
233326.638995
233240.496494
233155.554574
233072.057279
233196.615381
66.7281849525
66.7281849525
66.7281849525
66.7281849525
66.7281849525
66.7281849525
66.7281849525
66.7281849525
66.7281849525
66.7281849525
66.7281849525
66.7281849529
66.7281849791
66.7281864289
66.7282647149
66.7324827909
66.8425041047
101.588494163
985.603887752
4725.95051869
21169.2143375
55117.5691246
110262.564254
170504.478129
211297.674638
227711.416257
231870.522343
232616.991488
232646.762893
232541.457567
232389.329261
232246.726144
232101.022775
231933.689159
231782.726521
231631.853008
231462.913423
231311.108683
231157.66172
231008.804481
230842.676263
230699.247938
230555.330466
230396.156948
230257.902903
230116.588245
229978.188206
229847.777948
229702.434861
229577.174417
229448.312635
229320.894791
229202.724149
229068.791715
228957.574013
228844.332595
228729.763718
228616.256166
228510.526851
228387.478381
228289.660079
228187.176759
228085.01219
227982.759175
227881.404531
227782.28321
227685.943487
227591.177613
227497.449656
227591.907868
66.7281849523
66.7281849523
66.7281849523
66.7281849523
66.7281849523
66.7281849523
66.7281849523
66.7281849523
66.7281849523
66.7281849523
66.7281849523
66.7281849545
66.7281850737
66.7281916049
66.7285369373
66.7469002783
67.0359028667
246.718433375
2022.73735658
8099.30938566
30706.8173275
72256.8905244
131164.925289
185522.111143
215837.360001
225894.244479
228030.652079
228272.097197
228123.515741
227925.956979
227715.068013
227485.104271
227278.662377
227050.224177
226842.756542
226636.287207
226416.76177
226217.718956
226018.025603
225826.284641
225621.855485
225438.552352
225260.99681
225065.999232
224897.688814
224726.176483
224565.096409
224388.707664
224238.101373
224083.22372
223931.572413
223788.173974
223630.065176
223495.56213
223360.340384
223228.643381
223105.057914
222959.850115
222839.81301
222716.289223
222597.744183
222483.722759
222372.248912
222257.133891
222139.823786
222033.320103
221911.972325
221817.278956
221714.907116
221778.118948
66.7281849521
66.7281849521
66.7281849521
66.7281849521
66.7281849521
66.7281849521
66.7281849521
66.7281849521
66.7281849521
66.7281849521
66.7281849523
66.7281849613
66.7281854479
66.7282115796
66.7295643902
66.7981079965
68.4439806951
706.250853582
3407.35601444
15475.0931414
43539.4198151
92523.4756908
151763.927086
196939.862908
217332.855486
222830.322947
223733.299472
223642.508828
223392.034337
223094.178015
222813.554138
222517.055614
222241.02013
221970.482152
221687.374497
221433.777474
221164.999052
220920.684147
220680.552464
220429.953886
220207.083825
219982.654329
219768.621709
219542.984003
219341.800324
219147.435183
218940.708706
218759.392105
218576.4133
218399.602702
218230.74033
218047.225524
217889.079906
217729.650738
217582.966627
217418.260927
217278.014258
217133.654039
216991.730246
216854.405948
216722.039695
216599.666947
216457.117797
216337.225812
216212.140694
216090.589966
215972.72136
215856.963274
215742.325119
215776.333024
66.728184952
66.728184952
66.728184952
66.728184952
66.728184952
66.728184952
66.728184952
66.728184952
66.728184952
66.728184952
66.728184953
66.7281850082
66.7281879997
66.7283453266
66.7366458916
66.9003758329
141.950277318
1230.62635615
5771.13186106
24463.7658158
60414.9907597
115120.154319
170239.564711
204150.031868
216316.310384
218914.641647
219094.117336
218809.970344
218440.310497
218065.923288
217710.994808
217363.704977
217008.23287
216685.271821
216349.05523
216045.393299
215728.140843
215438.965098
215156.704826
214867.409835
214604.823747
214349.30505
214083.787179
213846.076893
213609.849475
213386.483675
213154.159883
212947.073396
212745.816439
212529.447486
212339.287847
212148.998276
211967.284148
211798.015044
211613.825536
211452.621797
211285.602575
211123.432975
210976.00128
210814.899129
210677.637903
210533.360992
210390.067246
210250.442729
210116.252346
209986.252836
209858.515679
209731.437676
209605.186664
209607.066878
66.7281849519
66.7281849519
66.7281849519
66.7281849519
66.7281849519
66.7281849519
66.7281849519
66.7281849519
66.7281849519
66.728184952
66.728184958
66.72818528
66.7282025223
66.7290936571
66.7746301489
67.3407520979
494.296433363
2795.48140624
12102.1247608
36998.5950661
81343.1647813
138200.460572
184708.393813
207180.359463
213467.147201
214399.258471
214161.164705
213744.333234
213285.769883
212854.354955
212414.722243
212008.529659
211594.551328
211215.990357
210828.426905
210475.945771
210113.536163
209779.434662
209458.298399
209129.371494
208835.032726
208528.546879
208250.793033
207978.304309
207717.683882
207447.553129
207207.966967
206976.458983
206732.592513
206514.749316
206297.286934
206091.919961
205875.347879
205689.926433
205503.556189
205319.639623
205143.836139
204952.416298
204792.603342
204633.340354
204475.035012
204316.06818
204159.812524
204014.498864
203852.849229
203718.308028
203581.925699
203447.237018
203311.671188
203283.646803
66.7281849517
66.7281849517
66.7281849517
66.7281849517
66.7281849517
66.7281849517
66.7281849517
66.7281849517
66.7281849518
66.7281849525
66.7281849934
66.7281871842
66.7283013311
66.7342333577
66.8692275086
114.668028856
1055.43475861
4963.53553489
21386.6881326
54153.7355847
105431.518151
159284.898496
193938.731641
206787.457176
209462.895543
209479.968323
209006.236826
208484.653419
207949.2591
207448.988715
206944.826404
206478.184158
206009.814469
205559.060516
205140.460569
204739.294643
204332.685703
203963.936855
203585.426112
203239.145279
202905.763544
202568.002374
202264.35498
201946.908974
201661.16898
201380.52695
201116.834444
200841.184109
200594.871294
200354.191834
200101.902761
199880.796804
199663.3802
199458.495913
199236.795013
199043.260764
198849.645608
198662.832267
198481.501376
198310.98605
198121.505648
197959.632805
197794.950924
197634.942152
197479.248959
197326.763881
197177.224517
197030.632151
196886.348778
196831.773639
66.7281849516
66.7281849516
66.7281849516
66.7281849516
66.7281849516
66.7281849516
66.7281849516
66.7281849516
66.7281849517
66.7281849572
66.7281852462
66.7282005253
66.7289811273
66.7683878048
67.2772333009
424.764648919
2597.0326877
10581.2023073
34378.2174404
76172.0921685
130505.938594
175709.203204
197874.671815
203980.832582
204698.970896
204262.052814
203662.914979
203038.914521
202433.913759
201865.984073
201305.563316
200766.858957
200266.605799
199764.040766
199304.24908
198837.225964
198413.344657
197981.679546
197586.652142
197205.365829
196821.343544
196476.40079
196120.465256
195796.935891
195485.466278
195164.958201
194878.968507
194596.782137
194328.639278
194048.531218
193799.411555
193560.913267
193311.112857
193089.675212
192867.585219
192651.146809
192448.416972
192232.524961
192044.316695
191854.390626
191668.886279
191487.728703
191318.245066
191132.111027
190972.214277
190808.847827
190648.554402
190491.622819
190338.270942
190255.748796
66.7281849515
66.7281849515
66.7281849515
66.7281849515
66.7281849515
66.7281849515
66.7281849515
66.7281849515
66.7281849524
66.7281849988
66.7281874395
66.728312537
66.7346972898
66.8766702947
116.607802174
1058.52913239
4923.86644169
20940.8989074
52732.0680133
101984.202797
153231.896593
185813.200745
197563.421003
199740.4521
199495.839441
198826.126901
198106.92352
197424.314309
196753.585862
196111.105257
195512.16098
194917.882173
194367.104945
193825.194528
193303.13423
192822.137372
192336.592629
191888.845773
191459.151481
191027.260984
190637.406371
190239.062147
189876.47653
189527.588441
189173.155701
188851.879618
188542.382787
188224.513255
187937.979803
187661.628037
187373.344101
187117.600907
186866.758772
186629.900565
186377.364281
186154.06024
185931.219455
185717.031556
185516.837002
185299.645317
185109.929564
184917.795344
184731.054238
184549.839358
184373.637565
184201.354606
184039.691589
183857.579166
183702.17524
183590.999073
66.7281849514
66.7281849514
66.7281849514
66.7281849514
66.7281849514
66.7281849514
66.7281849514
66.7281849516
66.7281849592
66.728185357
66.7282059379
66.7292364901
66.779783875
67.3967626101
503.253532716
2787.54373407
11353.6732782
35394.9034306
76679.1831088
128627.117602
170184.847008
189559.517389
194406.764203
194663.775363
193985.736264
193185.904719
192392.128512
191645.13594
190915.538304
190223.554576
189556.185514
188936.822156
188321.117431
187754.849474
187190.448164
186672.228042
186152.781329
185676.369399
185198.423156
184762.298796
184321.81469
183922.931953
183515.138029
183144.206882
182787.937017
182425.548347
182097.058338
181781.403499
181456.408914
181164.236067
180876.265685
180603.913129
180322.049192
180070.030568
179820.859736
179583.895323
179332.606892
179111.385465
178893.632368
178683.408797
178476.982876
178280.075288
178064.125138
177878.708553
177694.048911
177515.050575
177339.113458
177165.117176
176993.294677
176852.319211
66.7281849513
66.7281849513
66.7281849513
66.7281849514
66.7281849514
66.7281849514
66.7281849514
66.728184953
66.7281850358
66.7281893008
66.7284028238
66.7390349844
66.9338537185
152.469289574
1258.27329252
5664.5487199
23200.2388381
56114.0004294
104490.270411
151731.197869
179505.31495
188525.567394
189750.767551
189153.159967
188271.008277
187381.780409
186525.707561
185709.571983
184929.122076
184200.917527
183489.837977
182808.532179
182176.770521
181549.645685
180972.711223
180399.568216
179849.221429
179345.979029
178864.270971
178380.664805
177939.804321
177494.107553
177091.155921
176678.853794
176303.169667
175942.477999
175574.009617
175241.6279
174921.805205
174592.516783
174294.88453
174003.804556
173728.96444
173442.208009
173186.324026
172930.83482
172683.607759
172450.99697
172205.088339
171991.197514
171775.959233
171563.822312
171355.369297
171159.838248
170948.890367
170767.596373
170583.231066
170401.013457
170221.241463
170054.201992
66.7281849513
66.7281849513
66.7281849513
66.7281849513
66.7281849513
66.7281849513
66.7281849516
66.7281849685
66.7281858434
66.7282309549
66.7305001191
66.8198465081
74.6509381274
751.786120647
3477.06553971
14500.3021867
40359.5553365
82814.2767714
131896.947503
167249.233811
181739.143101
184642.858366
184285.367154
183348.492279
182361.746063
181406.174753
180510.217129
179642.682969
178820.847879
178037.538494
177289.590826
176590.759811
175901.806279
175265.344676
174642.276774
174044.862319
173493.33243
172942.395948
172437.275932
171931.649771
171465.522002
171019.432568
170571.930172
170167.335403
169754.521879
169376.695274
169014.918449
168646.164455
168311.709861
167984.818489
167674.336202
167354.144899
167067.68608
166791.239158
166501.028503
166242.332091
165983.750046
165734.29766
165502.251541
165253.925094
165036.181388
164816.210643
164600.508936
164390.895088
164188.444135
163992.211299
163806.84435
163600.313288
163421.450618
163231.617841
66.7281849512
66.7281849512
66.7281849512
66.7281849512
66.7281849512
66.7281849513
66.7281849564
66.7281852126
66.7281981348
66.7288301731
66.7591488586
67.1809720406
310.241840854
2177.55208365
7773.4967531
28870.0527853
64738.6158213
112389.249704
153313.63055
173900.066688
179298.026076
179411.257061
178460.28075
177380.260788
176326.842865
175322.273512
174367.346148
173461.616616
172597.099482
171791.752207
171009.783282
170262.742542
169567.760324
168888.127001
168240.67811
167640.044696
167042.022697
166493.483661
165945.134869
165444.425253
164939.127783
164476.382985
164010.427963
163588.35184
163183.24355
162771.80037
162397.463252
162036.312826
161668.20057
161334.994209
161007.110514
160698.94957
160379.261532
160093.28459
159809.769347
159542.032084
159257.984582
159006.878883
158757.830494
158518.161242
158292.046676
158046.796094
157831.593065
157615.115096