/*--------------------------------*- C++ -*----------------------------------*\
| =========                 |                                                 |
| \\      /  F ield         | foam-extend: Open Source CFD                    |
|  \\    /   O peration     | Version:     4.1                                |
|   \\  /    A nd           | Web:         http://www.foam-extend.org         |
|    \\/     M anipulation  |                                                 |
\*---------------------------------------------------------------------------*/
FoamFile
{
    version     2.0;
    format      ascii;
    class       volScalarField;
    location    "0.0008";
    object      rho;
}
// * * * * * * * * * * * * * * * * * * * * * * * * * * * * * * * * * * * * * //

dimensions      [1 -3 0 0 0 0 0];

internalField   nonuniform List<scalar> 
8400
(
0.00101999409828
0.00101999409828
0.00101999409828
0.00101999409828
0.00101999409828
0.00101999409828
0.00101999409828
0.00101999409828
0.00101999409828
0.00101999409828
0.00101999409828
0.00101999409828
0.00101999409828
0.00101999409828
0.00101999409828
0.00101999409828
0.00101999409829
0.00101999409836
0.00101999410275
0.00101999435211
0.00102000795503
0.00102075132774
0.00102963398165
0.00110213198352
0.00142811981146
0.00234261670191
0.00423622028844
0.00731036661938
0.0109177303942
0.0137200967389
0.0150928866975
0.0155331167035
0.0156320947997
0.0156402950273
0.0156279610011
0.0156121275925
0.0155966009222
0.0155821090136
0.0155686719826
0.0155561620007
0.0155444412897
0.0155333673658
0.0155228119089
0.0155126761529
0.0155030907728
0.0154939752855
0.0154847557631
0.0154753177873
0.0154658760428
0.0154563838771
0.0154466990889
0.0154367384295
0.0154265784668
0.0154163795496
0.0154062357869
0.0153961461412
0.0153861184712
0.015376245935
0.015366655845
0.0153574229109
0.0153486177888
0.0153404041326
0.0153330021642
0.0153265806765
0.0153212206102
0.0153169680592
0.0153138905999
0.015312081171
0.0153117439638
0.0153520948679
0.00101999409807
0.00101999409807
0.00101999409807
0.00101999409807
0.00101999409807
0.00101999409807
0.00101999409807
0.00101999409807
0.00101999409807
0.00101999409807
0.00101999409807
0.00101999409807
0.00101999409807
0.00101999409807
0.00101999409807
0.00101999409807
0.00101999409808
0.00101999409849
0.00101999412179
0.00101999541718
0.0010200683815
0.00102171723486
0.00104157637412
0.00117863393538
0.00168359302767
0.00293607577789
0.00529823788088
0.00872698134925
0.0122003149601
0.0144697133696
0.0154142544312
0.01569869343
0.0157806556824
0.0158132319278
0.0158343548453
0.015852277695
0.0158687777701
0.01588423273
0.0158984510002
0.0159113453159
0.0159233452181
0.0159345024546
0.015944576083
0.0159535205903
0.0159613140829
0.0159679460617
0.0159734196254
0.0159777602496
0.015981000395
0.0159831496649
0.0159841896096
0.0159841202577
0.0159830186838
0.0159810147936
0.0159782384765
0.0159748000581
0.0159707889794
0.0159663098965
0.0159615087455
0.0159565357758
0.0159515364735
0.015946673939
0.0159421104202
0.0159379834589
0.0159344150901
0.0159315199077
0.0159294051083
0.0159281700911
0.015927976301
0.0159603279675
0.00101999409797
0.00101999409797
0.00101999409797
0.00101999409797
0.00101999409797
0.00101999409797
0.00101999409797
0.00101999409797
0.00101999409797
0.00101999409797
0.00101999409797
0.00101999409797
0.00101999409797
0.00101999409797
0.00101999409797
0.00101999409797
0.00101999409801
0.00101999410032
0.00101999423299
0.00102000155171
0.00102041107079
0.00102596131973
0.00107654421868
0.00133288669898
0.00210209041968
0.00377860892884
0.00665282671468
0.0102807428209
0.0133551897415
0.0150009914797
0.015580807549
0.015748521499
0.0158070545663
0.0158400381202
0.0158662623571
0.0158894467361
0.0159103797449
0.0159297642493
0.0159477690318
0.0159642031854
0.0159790651203
0.0159923628987
0.0160041073035
0.016014335715
0.0160230887
0.0160303991845
0.0160363092696
0.0160408774728
0.0160441614321
0.0160462002494
0.0160470315471
0.0160467111492
0.0160453209834
0.0160429757523
0.0160398041514
0.0160359287653
0.0160314802725
0.0160266042624
0.0160214504745
0.0160161746266
0.0160109344731
0.0160058690176
0.0160011012717
0.0159967504475
0.0159929300884
0.0159897589293
0.0159873579567
0.015985824517
0.0159852873978
0.0160117267483
0.00101999409791
0.00101999409791
0.00101999409791
0.00101999409791
0.00101999409791
0.00101999409791
0.00101999409791
0.00101999409791
0.00101999409791
0.00101999409791
0.00101999409791
0.00101999409791
0.00101999409791
0.00101999409791
0.00101999409791
0.00101999409792
0.00101999409808
0.00101999410748
0.00101999464272
0.00102002475855
0.00102110582851
0.00103406941611
0.00113242365587
0.00153532318526
0.0026012401395
0.00471714168213
0.00798845425626
0.0115810363352
0.0141475863083
0.0152991716308
0.0156583512843
0.0157634129158
0.0158070639258
0.0158364021302
0.0158612707588
0.0158834237967
0.0159032390635
0.0159213294714
0.0159378547018
0.0159526621823
0.0159657827424
0.0159772512585
0.0159871063055
0.0159954009398
0.0160021909775
0.0160075185278
0.016011430025
0.0160140019442
0.0160153283503
0.0160154728019
0.0160144612628
0.0160123373501
0.0160092124291
0.0160052659093
0.0160006701153
0.0159955125393
0.0159898374867
0.0159837510378
0.0159774642316
0.0159712333267
0.0159652572197
0.0159596205267
0.0159543296976
0.0159494237944
0.015945025758
0.0159413142736
0.0159384634235
0.0159365768921
0.0159357303878
0.015958570776
0.00101999409787
0.00101999409787
0.00101999409787
0.00101999409787
0.00101999409787
0.00101999409787
0.00101999409787
0.00101999409787
0.00101999409787
0.00101999409787
0.00101999409787
0.00101999409787
0.00101999409787
0.00101999409787
0.00101999409787
0.00101999409788
0.00101999409852
0.00101999413543
0.00101999619889
0.00102011360017
0.00102236360973
0.00104820205991
0.00121365963216
0.00178577336373
0.00315702367328
0.0056756273837
0.00919698363308
0.0125854864239
0.0146587740812
0.0154622725737
0.0156940111778
0.0157648411875
0.0157985931522
0.0158233758914
0.0158448028741
0.0158640191412
0.0158812852478
0.0158964650808
0.0159095923416
0.0159212186681
0.0159314716164
0.0159401614467
0.0159473077649
0.0159529394339
0.0159570901511
0.015959835212
0.0159612584143
0.015961443418
0.015960498054
0.0159584931382
0.0159554218525
0.0159513054927
0.0159463095252
0.015940684312
0.0159346054402
0.0159280838843
0.0159210524233
0.015913591421
0.0159063078827
0.0158996170058
0.0158931799781
0.0158869377137
0.0158810251856
0.0158754271926
0.0158703342331
0.0158660411647
0.0158627797569
0.0158606321454
0.0158595901117
0.0158802606108
0.00101999409784
0.00101999409784
0.00101999409784
0.00101999409784
0.00101999409784
0.00101999409784
0.00101999409784
0.00101999409784
0.00101999409784
0.00101999409784
0.00101999409784
0.00101999409784
0.00101999409784
0.00101999409784
0.00101999409784
0.00101999409788
0.00101999410005
0.00101999422491
0.00102000112943
0.0010203884023
0.0010257321122
0.00107493751233
0.00132709184381
0.00208795440691
0.00375359804872
0.00662098611842
0.0102563580522
0.0133432958069
0.0149850174406
0.0155494812229
0.0157049101455
0.0157554491982
0.015782176667
0.0158025535045
0.0158201522102
0.0158357303086
0.015849471938
0.0158614313546
0.015871671833
0.0158802950258
0.0158874064294
0.0158931006852
0.0158973789881
0.0158998777629
0.0159005987185
0.0159005685455
0.0159000061246
0.0158980694451
0.0158947232311
0.0158904002947
0.0158852180467
0.015879184402
0.015872379221
0.0158650176679
0.0158573175195
0.0158493388796
0.0158410334952
0.0158324374087
0.0158237953331
0.0158154762271
0.0158077370249
0.0158006121275
0.0157939931293
0.0157878149658
0.0157822003613
0.015777401908
0.0157736417452
0.0157710115505
0.0157695208799
0.0157884723374
0.00101999409782
0.00101999409782
0.00101999409782
0.00101999409782
0.00101999409782
0.00101999409782
0.00101999409782
0.00101999409782
0.00101999409782
0.00101999409782
0.00101999409782
0.00101999409782
0.00101999409782
0.00101999409782
0.00101999409782
0.00101999409791
0.0010199941029
0.00101999438705
0.00102000990817
0.00102085412685
0.00103085467477
0.00111061018826
0.00145930724904
0.00242057753249
0.00438900923066
0.00754549765768
0.0111801631871
0.0139187336721
0.0152008081075
0.0156000290202
0.0157064438952
0.0157424641449
0.0157626117673
0.0157781517741
0.0157913548351
0.0158027081141
0.0158123566302
0.0158203950268
0.0158269071975
0.0158319594026
0.0158356017983
0.0158378628314
0.0158387639522
0.0158383390806
0.0158366554678
0.0158338317709
0.0158299654058
0.0158251227682
0.01581940302
0.0158128690256
0.0158055214918
0.0157974188156
0.015788724103
0.0157796299281
0.0157702421741
0.015760563387
0.0157506278648
0.0157405949505
0.0157307426454
0.0157213729614
0.0157126612053
0.0157048863376
0.0156979437693
0.0156912074875
0.0156848242546
0.0156793778266
0.01567510373
0.0156720902674
0.0156703361036
0.0156881852298
0.0010199940978
0.0010199940978
0.0010199940978
0.0010199940978
0.0010199940978
0.0010199940978
0.0010199940978
0.0010199940978
0.0010199940978
0.0010199940978
0.0010199940978
0.0010199940978
0.0010199940978
0.0010199940978
0.00101999409781
0.00101999409809
0.0010199941142
0.0010199950186
0.00102004592663
0.00102142493192
0.00103809034043
0.00115798476673
0.00161976721472
0.00279682070881
0.00506598083773
0.00845018977072
0.0119878687703
0.0143594366839
0.0153460239986
0.0156285810733
0.0157015171321
0.0157261961945
0.0157399544716
0.0157502094495
0.0157584607629
0.0157650709984
0.0157701745236
0.0157738684618
0.0157762215578
0.0157772710956
0.015777046297
0.0157755959158
0.0157729908431
0.0157692789729
0.0157644801768
0.0157586155871
0.015751762724
0.0157440822984
0.0157357276485
0.0157267401419
0.015717075725
0.0157069920554
0.0156966257371
0.0156856844508
0.0156743785726
0.0156630698916
0.0156517349956
0.0156403809023
0.0156291962009
0.0156184940683
0.0156085234893
0.0155993547668
0.0155909146226
0.0155831392563
0.0155761323018
0.0155701256999
0.0155653185488
0.0155617794199
0.0155594875556
0.0155760103611
0.00101999409779
0.00101999409779
0.00101999409779
0.00101999409779
0.00101999409779
0.00101999409779
0.00101999409779
0.00101999409779
0.00101999409779
0.00101999409779
0.00101999409779
0.00101999409779
0.00101999409779
0.00101999409779
0.0010199940978
0.00101999409855
0.00101999414198
0.00101999656806
0.00102013430858
0.00102266817865
0.00105077662958
0.00122566104701
0.00181823481057
0.00322614008982
0.00579131853315
0.00933737420171
0.0126943699468
0.0146979031597
0.0154428994522
0.0156403581
0.015688895268
0.0157038888491
0.0157112020565
0.0157160369726
0.0157191768338
0.0157208432678
0.0157211751662
0.0157202748774
0.0157182076352
0.0157150123327
0.015710707492
0.0157055839319
0.0156997600265
0.0156928054103
0.0156846661633
0.015675573597
0.0156656235156
0.0156549845258
0.0156438237157
0.015632226217
0.0156201426557
0.015607470898
0.0155942598655
0.0155807912826
0.0155674179887
0.0155542984215
0.0155413468855
0.0155284640728
0.0155157835924
0.015503936043
0.0154932564215
0.0154832690394
0.0154738082916
0.0154650405182
0.0154571177059
0.0154503516003
0.0154449609492
0.0154409309236
0.0154381565857
0.015453537279
0.00101999409778
0.00101999409778
0.00101999409778
0.00101999409778
0.00101999409778
0.00101999409778
0.00101999409778
0.00101999409778
0.00101999409778
0.00101999409778
0.00101999409778
0.00101999409778
0.00101999409778
0.00101999409778
0.00101999409781
0.00101999409989
0.00101999421857
0.00102000074859
0.00102036441122
0.00102549322324
0.0010731014217
0.00132028121012
0.00207036412406
0.00371973704377
0.00657069829403
0.0102056905132
0.0133075353988
0.0149527423557
0.0155018299217
0.0156363080422
0.0156662425211
0.0156733457664
0.015674877662
0.0156742758525
0.0156721962844
0.015668809897
0.0156642287086
0.0156585711699
0.0156519205808
0.0156443163186
0.0156358135652
0.015626493098
0.0156164100932
0.0156055767225
0.0155939652069
0.0155815357292
0.0155683495518
0.0155545754842
0.0155404032829
0.0155259614754
0.015511474958
0.0154968479084
0.0154816231867
0.0154660665754
0.0154507203767
0.0154356353993
0.0154206906821
0.0154059468418
0.0153917787509
0.0153785852581
0.0153664225727
0.0153549991181
0.0153440803685
0.0153338898712
0.0153250224001
0.0153178315698
0.0153120711946
0.015307367393
0.0153036937559
0.0153173225833
0.00101999409777
0.00101999409777
0.00101999409777
0.00101999409777
0.00101999409777
0.00101999409777
0.00101999409777
0.00101999409777
0.00101999409777
0.00101999409777
0.00101999409777
0.00101999409777
0.00101999409777
0.00101999409777
0.00101999409785
0.00101999410252
0.0010199943673
0.00102000877303
0.00102078909519
0.00103005563522
0.00110484038933
0.00143817616727
0.00236844705232
0.00429149671184
0.00740929760151
0.0110512978853
0.0138355391356
0.015143698571
0.0155354684209
0.015622289469
0.0156369139155
0.0156359169544
0.0156309649951
0.0156243482067
0.0156165477361
0.0156076880994
0.0155978593068
0.0155871732606
0.0155757042057
0.0155634721039
0.015550502973
0.0155368703369
0.0155226332424
0.0155080887232
0.0154932738132
0.0154776261613
0.0154611295587
0.0154441581408
0.0154268782124
0.0154094330957
0.0153918567232
0.0153741067092
0.0153562035726
0.015338316822
0.015320689195
0.0153037419242
0.0152874852318
0.0152713789293
0.0152556226365
0.0152407852257
0.0152269993626
0.0152142189937
0.0152023744329
0.0151915138389
0.0151818318615
0.0151735366663
0.0151666794897
0.0151611767541
0.0151569949274
0.0151696625448
0.00101999409776
0.00101999409776
0.00101999409776
0.00101999409776
0.00101999409776
0.00101999409776
0.00101999409776
0.00101999409776
0.00101999409776
0.00101999409776
0.00101999409776
0.00101999409776
0.00101999409776
0.00101999409777
0.00101999409801
0.00101999411191
0.00101999488758
0.00102003801747
0.00102133153262
0.00103680327194
0.00114953442572
0.00159190588251
0.00273262615923
0.00495234598325
0.00830334005556
0.0118611316456
0.0142796152422
0.0152822511358
0.0155499874205
0.0155997725812
0.0156007606039
0.0155913509631
0.0155793119312
0.0155661434975
0.0155521645763
0.015537466531
0.0155220740092
0.0155062798649
0.0154901987487
0.0154733924555
0.0154558073885
0.0154377216946
0.015419255541
0.0154004487735
0.0153812408261
0.0153615849458
0.0153415321599
0.0153211824042
0.0153009168393
0.0152808818111
0.0152606423602
0.015240226447
0.0152199077228
0.0151997313301
0.0151798277721
0.0151603878227
0.0151415554524
0.0151233945164
0.0151062961593
0.0150904101871
0.015075279774
0.0150610066803
0.0150479543668
0.0150361702262
0.0150257068277
0.0150166094696
0.0150088887999
0.01500253633
0.0149976083869
0.0150089476443
0.00101999409775
0.00101999409775
0.00101999409775
0.00101999409775
0.00101999409775
0.00101999409775
0.00101999409775
0.00101999409775
0.00101999409775
0.00101999409775
0.00101999409775
0.00101999409776
0.00101999409776
0.00101999409777
0.00101999409845
0.00101999413757
0.00101999628857
0.00102011603433
0.00102241689754
0.00104870348786
0.00121676762262
0.0017955266632
0.00318023089718
0.00571394551033
0.00924495533563
0.0126183043974
0.0146393600967
0.0153744420074
0.0155463166671
0.015567405035
0.0155562575833
0.0155384688502
0.0155193026165
0.0154997579679
0.0154795526134
0.0154586861547
0.0154374470168
0.0154158838032
0.0153940016182
0.0153718071993
0.0153493202666
0.015326592377
0.0153039130231
0.0152813013899
0.0152582626767
0.0152347590905
0.0152110705253
0.0151873117143
0.015163566697
0.0151398906778
0.0151166431735
0.0150939548593
0.0150713186719
0.0150487344813
0.0150265846359
0.0150050268333
0.0149841871407
0.0149641499055
0.0149450086195
0.0149268812688
0.0149101782886
0.0148950655844
0.0148811029537
0.0148682819539
0.0148568141934
0.0148467008418
0.0148380389642
0.0148309351164
0.0148254793612
0.0148358032665
0.00101999409775
0.00101999409775
0.00101999409775
0.00101999409775
0.00101999409775
0.00101999409775
0.00101999409775
0.00101999409775
0.00101999409775
0.00101999409775
0.00101999409775
0.00101999409775
0.00101999409775
0.00101999409779
0.00101999409995
0.00101999422233
0.00102000088318
0.00102036674017
0.00102554673919
0.00107337910017
0.00132195862841
0.0020746832184
0.0037280851829
0.00658145068175
0.0102140089364
0.0133008133636
0.0149138502128
0.0154239885597
0.0155230822202
0.0155217800465
0.0155003003206
0.0154750511841
0.0154487329133
0.0154218793567
0.0153948088005
0.0153675895995
0.0153403002457
0.0153132126666
0.0152863262675
0.0152591535581
0.0152316860888
0.0152041961075
0.0151767342724
0.0151493234881
0.0151221726519
0.0150953050128
0.0150682815977
0.0150410823033
0.0150139799134
0.0149871028164
0.0149606048434
0.014934595653
0.0149093759187
0.0148849352626
0.0148607225843
0.014836855878
0.0148138978008
0.0147920789843
0.0147714298017
0.0147519033132
0.014733420401
0.0147160043826
0.0147004302301
0.0146871458404
0.0146752186562
0.0146642555436
0.0146546846053
0.0146467361658
0.0146405528114
0.0146494835825
0.00101999409774
0.00101999409774
0.00101999409774
0.00101999409774
0.00101999409774
0.00101999409774
0.00101999409774
0.00101999409774
0.00101999409774
0.00101999409774
0.00101999409774
0.00101999409774
0.00101999409775
0.00101999409785
0.00101999410342
0.00101999441325
0.00102001097053
0.00102088582999
0.00103114706594
0.00111187786321
0.00146300198296
0.00242792276332
0.00440061841155
0.00755896454088
0.0111866752161
0.013892426386
0.0151114880903
0.0154411377429
0.0154858406965
0.0154663602203
0.0154345346652
0.0154006071853
0.0153664103164
0.0153325042255
0.0152990303718
0.015265587871
0.0152321379706
0.0151989237201
0.0151659578959
0.0151331727497
0.0151008254323
0.0150690136237
0.01503725018
0.0150054360939
0.0149738322837
0.0149425263499
0.0149117624013
0.0148815570593
0.0148514395084
0.0148214197279
0.0147918739255
0.0147629988033
0.0147348902031
0.0147077603283
0.0146815556039
0.0146558454896
0.0146308889096
0.0146071886139
0.0145847656921
0.0145635040222
0.0145433789815
0.0145245862861
0.0145077906739
0.0144932475051
0.0144802499626
0.0144685180456
0.0144582411221
0.0144495339354
0.0144426196159
0.0144501484028
0.00101999409774
0.00101999409774
0.00101999409774
0.00101999409774
0.00101999409774
0.00101999409774
0.00101999409774
0.00101999409774
0.00101999409774
0.00101999409774
0.00101999409774
0.00101999409774
0.00101999409775
0.00101999409812
0.00101999411933
0.00101999527881
0.00102005879472
0.00102164802235
0.00104042844513
0.00117109405403
0.00165985724061
0.00288500533142
0.00521465836097
0.0086327893599
0.0121248219964
0.0143773150644
0.0152401520276
0.0154312642691
0.0154351125994
0.0153999427196
0.0153579095339
0.0153153968186
0.0152735608511
0.0152321600385
0.0151911653228
0.0151507267565
0.0151110791691
0.0150722881165
0.0150338331419
0.0149956051949
0.014957859546
0.0149208869802
0.0148846945918
0.0148487209336
0.0148129065508
0.0147775624405
0.0147427414528
0.0147087253584
0.0146755294003
0.0146426365332
0.0146101150978
0.0145783723625
0.0145475370615
0.0145179027588
0.0144894787632
0.0144617818214
0.0144349033931
0.014409224888
0.0143848720478
0.0143619358916
0.0143404420306
0.014320467548
0.0143025080085
0.014286727849
0.0142724864622
0.0142596612147
0.0142485481304
0.0142392450453
0.0142318671828
0.0142382094877
0.00101999409774
0.00101999409774
0.00101999409774
0.00101999409774
0.00101999409774
0.00101999409774
0.00101999409774
0.00101999409774
0.00101999409774
0.00101999409774
0.00101999409774
0.00101999409774
0.00101999409776
0.00101999409915
0.00101999417689
0.00101999836142
0.00102022545263
0.0010239150749
0.00106046689788
0.0012707439077
0.00194010043602
0.00347303230817
0.00618228080288
0.00977368069384
0.0129828644232
0.0147433038241
0.0153056217277
0.0153954803938
0.0153691571065
0.0153206622388
0.0152692749065
0.0152181401111
0.0151677743645
0.0151186467655
0.0150707948668
0.0150237557884
0.0149774526132
0.0149322916748
0.0148882754744
0.0148448828597
0.0148019865593
0.0147598126432
0.0147186684077
0.0146785005854
0.0146387576808
0.0145994591951
0.014560870636
0.0145233187613
0.014486841133
0.014450856677
0.0144154200329
0.0143809171
0.0143474171627
0.0143152522584
0.0142844715759
0.0142545757978
0.0142256840149
0.0141982057642
0.0141722052872
0.0141477331559
0.0141248618531
0.0141039536163
0.0140851080514
0.0140678268848
0.0140521330505
0.0140383236994
0.0140264041361
0.014016367032
0.0140082131972
0.0140128388277
0.00101999409773
0.00101999409773
0.00101999409773
0.00101999409773
0.00101999409773
0.00101999409773
0.00101999409773
0.00101999409773
0.00101999409773
0.00101999409773
0.00101999409773
0.00101999409774
0.00101999409782
0.00101999410259
0.00101999436529
0.00102000829943
0.00102074159984
0.00102958896684
0.00110120240296
0.00142479259508
0.00233366789057
0.00422328207907
0.00730476301945
0.0109337173431
0.013716466876
0.0149899140711
0.0153166346601
0.0153354952211
0.0152870350588
0.0152268232941
0.0151656951393
0.0151059628793
0.0150479499622
0.0149912601346
0.014936051223
0.0148824487534
0.0148299260127
0.0147784223691
0.0147283618699
0.0146797206421
0.0146319242754
0.014584887668
0.0145391367719
0.0144946483108
0.01445080777
0.0144076232742
0.0143653816213
0.0143243872143
0.0142846823379
0.0142456497536
0.0142073018532
0.0141700604597
0.0141343079706
0.0141000908008
0.0140668415417
0.0140346087405
0.0140038082487
0.0139745355375
0.0139468568687
0.0139211433758
0.0138974736185
0.0138753257255
0.0138547309793
0.0138360139583
0.0138192378612
0.0138044491743
0.0137916573389
0.0137808543378
0.0137720415306
0.0137752742966
0.00101999409773
0.00101999409773
0.00101999409773
0.00101999409773
0.00101999409773
0.00101999409773
0.00101999409773
0.00101999409773
0.00101999409773
0.00101999409773
0.00101999409773
0.00101999409774
0.00101999409812
0.00101999411903
0.0010199952479
0.00102005606638
0.00102163158116
0.00104005441722
0.00116819478059
0.00164981396437
0.00286072538857
0.00516883897373
0.00856703260834
0.0120517871351
0.0142961712403
0.0151323106403
0.0152875546414
0.0152570109193
0.0151900212431
0.0151184804528
0.0150482692665
0.0149798941854
0.014913569557
0.0148494575688
0.014787041949
0.0147264176826
0.0146677383965
0.0146104485489
0.0145544360126
0.0145001625344
0.0144475369201
0.0143959311529
0.0143456096281
0.0142968268753
0.0142489780686
0.0142020106648
0.0141562155108
0.0141118921971
0.0140690304222
0.0140270525246
0.0139859578466
0.0139461114427
0.0139079301969
0.0138714990214
0.0138362153201
0.0138020575738
0.0137694150964
0.0137383975972
0.0137094227063
0.0136826236302
0.0136574120011
0.0136337374745
0.0136119269451
0.0135920674207
0.0135742515808
0.0135585442267
0.0135449427681
0.0135334002743
0.0135238866096
0.0135255624504
0.00101999409773
0.00101999409773
0.00101999409773
0.00101999409773
0.00101999409773
0.00101999409773
0.00101999409773
0.00101999409773
0.00101999409773
0.00101999409773
0.00101999409773
0.00101999409776
0.00101999409948
0.00101999419349
0.00101999916382
0.00102026357559
0.00102441318578
0.00106437764512
0.00128828551457
0.00198660642499
0.00356650011343
0.0063220976051
0.00991473214377
0.0130492003891
0.0147029510094
0.0151845891877
0.0152231273561
0.0151588651371
0.0150774541415
0.0149953020714
0.0149155048776
0.0148386008893
0.0147643201431
0.0146925911313
0.0146230213629
0.0145557014284
0.0144907697274
0.0144275776307
0.0143659795776
0.0143064321543
0.014248872183
0.0141926364231
0.0141379167487
0.0140849729003
0.014033188968
0.0139825413573
0.0139335892451
0.013886306195
0.0138401181149
0.0137950139504
0.0137512890884
0.0137092564665
0.0136690190374
0.0136301350516
0.0135926090313
0.0135566767572
0.013522643202
0.0134905837814
0.0134600479708
0.0134312191761
0.0134044848743
0.0133798068767
0.01335702095
0.0133360564399
0.0133171208628
0.0133007644983
0.0132870539538
0.0132752252466
0.0132651424675
0.013265379312
0.00101999409773
0.00101999409773
0.00101999409773
0.00101999409773
0.00101999409773
0.00101999409773
0.00101999409773
0.00101999409773
0.00101999409773
0.00101999409773
0.00101999409773
0.00101999409786
0.00101999410484
0.00101999447972
0.00102001390971
0.00102099635955
0.00103233586983
0.00111883930305
0.00148656620053
0.00248211604346
0.00449521150559
0.00767544221173
0.0112617742065
0.0138541081682
0.0149405500753
0.0151638780629
0.0151279177093
0.0150403568601
0.0149465338984
0.0148546945276
0.0147661079161
0.0146808407552
0.0145984711812
0.0145190384278
0.0144426635081
0.0143690595447
0.0142980456732
0.0142291108012
0.014162381588
0.0140980674776
0.0140355378307
0.0139746174388
0.0139157124376
0.0138587962778
0.0138033230281
0.013749528667
0.0136976634278
0.0136471231873
0.0135978006626
0.0135499683525
0.013503995197
0.0134599437567
0.0134172891146
0.0133760780869
0.0133369509829
0.0132999021692
0.0132642653106
0.0132301066557
0.0131979257524
0.0131678649802
0.0131399070835
0.0131143026757
0.013091043333
0.0130695327703
0.0130498616736
0.013032433154
0.0130172406481
0.0130042031528
0.0129932750092
0.0129917812531
0.00101999409772
0.00101999409772
0.00101999409772
0.00101999409772
0.00101999409772
0.00101999409772
0.00101999409772
0.00101999409772
0.00101999409772
0.00101999409772
0.00101999409774
0.00101999409853
0.00101999414166
0.00101999640956
0.00102011606847
0.00102246466969
0.00104883845109
0.00121685597765
0.00179458051978
0.00317436628297
0.00568899438378
0.00918550029903
0.0125028992744
0.0144285867726
0.0150389937375
0.0150916380144
0.0150082926294
0.0149028507619
0.0147978944343
0.014696704894
0.0145991257017
0.0145054137329
0.0144156224942
0.0143293530481
0.0142464303357
0.0141666355805
0.0140897442566
0.0140152764857
0.013943367828
0.0138741947534
0.0138071071654
0.013742210409
0.0136796386248
0.0136187768409
0.013559570055
0.0135025351411
0.0134476297683
0.0133942234048
0.0133425315777
0.0132928026881
0.0132445111616
0.0131977431897
0.013152861934
0.0131101967795
0.0130696603866
0.0130305371998
0.0129929298199
0.0129574383592
0.0129245447652
0.0128941309
0.012865358491
0.0128382282001
0.0128132497036
0.0127905752183
0.0127702272661
0.0127521245606
0.0127361741574
0.0127223391718
0.0127106388326
0.0127074459607
0.00101999409772
0.00101999409772
0.00101999409772
0.00101999409772
0.00101999409772
0.00101999409772
0.00101999409772
0.00101999409772
0.00101999409772
0.00101999409772
0.00101999409781
0.00101999410245
0.00101999435087
0.00102000718707
0.00102066275574
0.00102878950033
0.0010954156232
0.00140475703223
0.00228233866436
0.0041221103339
0.00714297056765
0.010738793386
0.0135170279378
0.0147619910221
0.0150261094075
0.0149763248862
0.0148639421255
0.0147450157504
0.0146296563173
0.01451919258
0.014413450612
0.0143122127304
0.0142152743125
0.0141223318479
0.0140331361833
0.0139474633595
0.0138651007701
0.0137855257959
0.0137088081942
0.0136351304268
0.0135640843138
0.0134955157741
0.0134289922491
0.0133643434901
0.0133021140049
0.0132423537404
0.013184407755
0.0131284029121
0.0130745570975
0.0130222844727
0.0129715871395
0.0129231522707
0.0128770671026
0.0128327194633
0.0127900191821
0.012749162082
0.0127105926924
0.0126745920899
0.0126406106522
0.0126084608937
0.0125782665608
0.0125501125884
0.012524224449
0.0125010191569
0.0124804591236
0.0124618624003
0.0124452305976
0.0124308297521
0.0124185518549
0.0124138003126
0.00101999409772
0.00101999409772
0.00101999409772
0.00101999409772
0.00101999409772
0.00101999409772
0.00101999409772
0.00101999409772
0.00101999409772
0.00101999409773
0.00101999409832
0.00101999412995
0.00101999577759
0.0010200813876
0.00102201674648
0.00104402290217
0.00118985592586
0.00171428798674
0.00299818173584
0.00539028899529
0.00881372526049
0.0121879635265
0.0142303956766
0.0148935969337
0.0149377693297
0.0148292481851
0.014697362588
0.0145669930774
0.0144421372548
0.0143229526103
0.0142091939696
0.01410053478
0.0139969417547
0.0138979279328
0.0138026737817
0.0137113299842
0.0136239090327
0.0135398721381
0.0134590412231
0.0133810415913
0.0133058981355
0.013233699501
0.0131640737164
0.0130968841898
0.0130317801107
0.0129687010429
0.0129080998193
0.0128499352755
0.012793565973
0.012739237859
0.0126873061934
0.0126372453502
0.0125890119008
0.0125431272471
0.0124996010968
0.0124578587461
0.0124179858943
0.0123803404998
0.0123448789855
0.0123119394231
0.0122815478818
0.0122530472276
0.012226503282
0.0122022977467
0.0121803943481
0.0121607486504
0.0121433587883
0.0121282066844
0.0121152551169
0.0121089198471
0.00101999409772
0.00101999409772
0.00101999409772
0.00101999409772
0.00101999409772
0.00101999409772
0.00101999409772
0.00101999409772
0.00101999409772
0.0010199940978
0.00101999410197
0.00101999432251
0.00102000558637
0.00102057384704
0.00102788643244
0.00108909777775
0.00138318856091
0.0022284361722
0.00401918700931
0.00698341235748
0.0105582832751
0.0133615402117
0.0146247006677
0.0148733230613
0.0147945960194
0.0146532081668
0.0145073145659
0.014367124505
0.0142337044762
0.0141065832148
0.0139857524447
0.0138706153444
0.0137605975966
0.0136555295586
0.0135550339391
0.0134588782681
0.0133667898544
0.0132784667163
0.0131933963311
0.0131116283595
0.0130332671582
0.0129578930778
0.0128853214128
0.012815109459
0.0127474278455
0.0126824863455
0.012619655572
0.0125588518545
0.0125005374167
0.0124447314054
0.0123909078929
0.0123393524719
0.0122903227623
0.0122431379242
0.0121977682234
0.0121545858246
0.0121140313515
0.0120761300237
0.0120401486708
0.0120060566693
0.0119742154468
0.0119446731247
0.0119178075127
0.0118936081272
0.0118713457839
0.0118509997839
0.01183291919
0.0118170970961
0.011803505103
0.011795587125
0.00101999409772
0.00101999409772
0.00101999409772
0.00101999409772
0.00101999409772
0.00101999409772
0.00101999409772
0.00101999409772
0.00101999409773
0.0010199940984
0.00101999413366
0.00101999594028
0.00102008813596
0.00102212445519
0.00104499747355
0.00119450701423
0.0017270479155
0.00302306989434
0.00542448900628
0.00883744921854
0.01216825107
0.0141473059132
0.0147530900764
0.0147542924155
0.0146120283267
0.0144511337673
0.0142944374629
0.0141452171548
0.0140039370546
0.0138699090451
0.0137423719081
0.0136210282279
0.0135054222755
0.0133954187118
0.0132904057231
0.013189787505
0.0130935293844
0.0130010666888
0.0129123705759
0.0128275517263
0.0127461693495
0.0126679899852
0.0125925261421