/*--------------------------------*- C++ -*----------------------------------*\
| =========                 |                                                 |
| \\      /  F ield         | foam-extend: Open Source CFD                    |
|  \\    /   O peration     | Version:     4.1                                |
|   \\  /    A nd           | Web:         http://www.foam-extend.org         |
|    \\/     M anipulation  |                                                 |
\*---------------------------------------------------------------------------*/
FoamFile
{
    version     2.0;
    format      ascii;
    class       volScalarField;
    location    "0.0008";
    object      T;
}
// * * * * * * * * * * * * * * * * * * * * * * * * * * * * * * * * * * * * * //

dimensions      [0 0 0 1 0 0 0];

internalField   nonuniform List<scalar> 
8400
(
226.836296602
226.836296602
226.836296602
226.836296602
226.836296602
226.836296602
226.836296602
226.836296602
226.836296602
226.836296602
226.836296602
226.836296602
226.836296602
226.836296602
226.836296602
226.836296602
226.836296602
226.836296603
226.83629668
226.836301014
226.836537267
226.849450522
227.004079966
2039.70459619
5503.50603778
10651.8351296
13506.279647
15342.2449989
16548.6536771
17207.1385749
17483.2203777
17573.249953
17598.3577574
17606.7720364
17610.9583229
17614.0495846
17616.8279418
17619.511545
17622.188469
17624.9027797
17627.6960133
17630.6085335
17633.6672098
17636.8934076
17640.3540669
17643.2423631
17647.1392555
17651.2271885
17655.5691743
17660.1726714
17665.0395881
17670.15511
17675.4767727
17681.0056126
17686.7378031
17692.6185631
17698.5850612
17704.6125754
17710.6129815
17716.51006
17722.2319276
17727.6915215
17732.8216343
17737.5599797
17741.8362914
17745.5695237
17748.6938679
17751.1633829
17752.9708476
17761.30315
226.836296598
226.836296598
226.836296598
226.836296598
226.836296598
226.836296598
226.836296598
226.836296598
226.836296598
226.836296598
226.836296598
226.836296598
226.836296598
226.836296598
226.836296598
226.836296598
226.836296598
226.836296605
226.836297009
226.836319463
226.837584107
226.866294508
394.627451556
2923.35130516
6392.72891666
12007.3405921
14328.8404455
15927.5219248
16913.9600678
17401.537325
17583.6305691
17637.8808267
17655.8995526
17664.472053
17671.1105677
17677.2830629
17683.3044973
17689.2715604
17695.1677576
17701.8162669
17707.7092524
17713.6687222
17719.6655135
17725.7142942
17731.8539228
17738.0892065
17744.425066
17750.8758929
17757.460856
17764.1708311
17770.9933651
17777.9460995
17784.9790405
17792.0708171
17799.2024705
17806.3319896
17813.4114669
17820.4513423
17827.3192011
17833.9472169
17840.2382918
17846.1577958
17851.641026
17856.6713471
17861.1574193
17865.0210674
17868.2154178
17870.7079789
17872.4919049
17879.2232142
226.836296596
226.836296596
226.836296596
226.836296596
226.836296596
226.836296596
226.836296596
226.836296596
226.836296596
226.836296596
226.836296596
226.836296596
226.836296596
226.836296596
226.836296597
226.836296597
226.836296597
226.836296637
226.836298938
226.836425891
226.843531457
226.94009192
1268.95138101
5076.31199458
9691.91881989
13114.2607372
15098.0813858
16435.4791644
17194.6099589
17525.3587605
17633.8726709
17665.3081568
17676.5473644
17683.5162997
17689.5511688
17695.3132456
17701.7683014
17707.4320332
17713.1450916
17718.8767531
17724.6401187
17730.4462071
17736.339243
17742.3094752
17748.3740278
17754.5453461
17760.8276288
17767.2314853
17773.7607728
17780.4375004
17787.2464415
17794.14626
17801.1137699
17808.1210471
17815.1311533
17822.147649
17829.1219233
17835.9580796
17842.5720053
17848.9092113
17854.9300979
17860.5965717
17865.8747434
17870.648378
17874.8623984
17878.4706441
17881.4338238
17883.7338457
17885.3671908
17891.0005433
226.836296595
226.836296595
226.836296595
226.836296595
226.836296595
226.836296595
226.836296595
226.836296595
226.836296595
226.836296595
226.836296595
226.836296595
226.836296595
226.836296595
226.836296595
226.836296595
226.836296598
226.836296761
226.836306015
226.836826887
226.855668066
271.771428879
2518.49936669
5894.16552009
11369.5358541
13939.3955165
15670.5675482
16779.2135848
17353.879781
17576.629728
17643.8715479
17664.5462666
17673.5978061
17680.281805
17686.374544
17692.2067773
17698.6888276
17704.3036279
17709.9476182
17715.585597
17721.239951
17726.932817
17732.7019057
17738.564971
17744.528356
17750.6038869
17756.7981241
17763.1157036
17769.5610348
17776.143636
17782.8675133
17789.6710038
17796.5274585
17803.4139176
17810.3019373
17817.1697894
17823.9890442
17830.637135
17837.0485552
17843.1667755
17848.9797497
17854.4284976
17859.5088321
17864.0837669
17868.0926124
17871.5034649
17874.3022033
17876.4693735
17878.0066667
17882.9868075
226.836296595
226.836296595
226.836296595
226.836296595
226.836296595
226.836296595
226.836296595
226.836296595
226.836296595
226.836296595
226.836296595
226.836296595
226.836296595
226.836296595
226.836296595
226.836296595
226.836296606
226.836297244
226.836332922
226.838362265
226.87740449
520.752781193
3372.46543077
6870.04094077
12343.8066843
14558.7291075
16081.0808844
16997.411637
17432.0397123
17585.6804353
17630.3219815
17646.1748179
17654.7663492
17661.8849862
17668.5307061
17674.9313104
17681.1533476
17687.1959344
17693.9206472
17699.8072832
17705.7424032
17711.7273356
17717.75238
17723.8371383
17730.0122566
17736.2979472
17742.6892189
17749.193634
17755.8342462
17762.5925846
17769.4429936
17776.3813528
17783.3457258
17790.3259193
17797.3059304
17804.2290418
17811.0328069
17817.6615262
17824.0784668
17829.4173066
17835.2433905
17840.6645024
17845.6362994
17850.0899675
17853.9757967
17857.266035
17859.9724561
17862.0945151
17863.6173088
17868.2725146
226.836296594
226.836296594
226.836296594
226.836296594
226.836296594
226.836296594
226.836296594
226.836296594
226.836296594
226.836296594
226.836296594
226.836296594
226.836296594
226.836296594
226.836296594
226.836296595
226.836296632
226.836298798
226.836418537
226.843136348
226.936076627
1210.83771279
5031.78593746
9563.82008748
13056.3991395
15040.5018922
16375.0836671
17132.3782991
17462.3871275
17570.5663887
17602.8198302
17615.7597586
17624.5740916
17632.342903
17639.7055349
17646.8200178
17653.7429549
17660.5423849
17667.2381433
17673.8533958
17680.4255715
17686.9773711
17693.5570587
17700.1136397
17707.5338199
17714.2907261
17720.4047541
17727.4058511
17734.4434291
17741.5777517
17748.8272051
17756.1158693
17763.3990635
17770.6779032
17777.9154025
17785.0741484
17792.0821202
17798.8487952
17805.3642919
17811.5887386
17817.483033
17822.9883368
17828.0236382
17832.5162668
17836.4119122
17839.7022296
17842.4158938
17844.5186752
17846.0025694
17850.3704016
226.836296594
226.836296594
226.836296594
226.836296594
226.836296594
226.836296594
226.836296594
226.836296594
226.836296594
226.836296594
226.836296594
226.836296594
226.836296594
226.836296594
226.836296594
226.836296595
226.836296682
226.836301628
226.836571803
226.851270753
227.025433844
2208.71605618
5610.92107924
10859.8281439
13620.9643485
15418.3494167
16585.1705746
17208.0648786
17459.1405806
17537.7301402
17563.2322896
17575.5737809
17585.1068444
17593.8311632
17602.165294
17610.2211857
17618.0981573
17625.7994584
17633.3604058
17640.8046674
17648.1784366
17655.5167929
17662.8896169
17670.2639278
17677.6494412
17685.0589309
17692.5244871
17700.0887612
17707.7411022
17715.4546343
17723.262075
17731.0679112
17738.8469796
17746.5732526
17754.2160929
17761.7433135
17769.0546383
17776.1085723
17782.8743819
17789.3068591
17795.419633
17801.1914347
17805.5993238
17810.2581467
17814.2503356
17817.6151446
17820.3703874
17822.5183942
17824.0404518
17828.2774098
226.836296593
226.836296593
226.836296593
226.836296593
226.836296593
226.836296593
226.836296593
226.836296593
226.836296593
226.836296593
226.836296593
226.836296593
226.836296593
226.836296593
226.836296594
226.836296598
226.836296877
226.836312537
226.837193963
226.861214158
331.125268247
2735.99842821
6139.55628992
11687.2546641
14091.7124531
15718.8256832
16733.8791647
17242.9225461
17434.8454186
17493.3770245
17515.1979743
17527.6562446
17538.1188864
17547.9153653
17557.3345819
17566.4541015
17575.3888421
17584.1136847
17592.6735573
17601.1007433
17609.4308163
17617.7280804
17625.9827599
17634.2135572
17642.4381366
17650.6903647
17659.0058141
17667.3517286
17675.7034253
17684.0872246
17692.5018682
17700.9245937
17708.5193504
17716.8675788
17725.0367541
17733.021354
17740.7798456
17748.2559202
17755.3787786
17762.1171841
17768.4825635
17774.3955318
17779.7865602
17784.5906189
17788.7497659
17792.2521461
17795.0999166
17797.2876577
17798.8029719
17802.8769633
226.836296593
226.836296593
226.836296593
226.836296593
226.836296593
226.836296593
226.836296593
226.836296593
226.836296593
226.836296593
226.836296593
226.836296593
226.836296593
226.836296593
226.836296593
226.836296606
226.836297356
226.836339204
226.83871462
226.882596233
571.760775565
3598.53403111
6958.67208084
12338.811466
14501.7197402
15965.2923411
16837.1934138
17248.6712143
17394.4034941
17440.0236783
17459.0051859
17472.884451
17484.4691708
17495.4956485
17506.1508255
17516.5061328
17526.5617266
17536.3604277
17545.978597
17555.4553644
17564.8247828
17574.1856489
17582.7083093
17591.96388
17601.1389207
17610.316237
17619.4682495
17628.6170194
17637.7699002
17646.9723085
17656.1472273
17665.2714123
17674.2544065
17683.0767543
17691.7386821
17700.2948198
17708.6231411
17716.600551
17724.1566893
17731.3179118
17737.2316641
17743.4574492
17749.0791602
17754.1054387
17758.440045
17762.0898358
17765.0616142
17767.3386782
17768.9001857
17772.8437242
226.836296593
226.836296593
226.836296593
226.836296593
226.836296593
226.836296593
226.836296593
226.836296593
226.836296593
226.836296593
226.836296593
226.836296593
226.836296593
226.836296593
226.836296594
226.83629663
226.836298686
226.836411843
226.84271577
226.931880702
1129.76309932
4951.85406259
9253.77342781
12901.0888058
14859.5599847
16164.7340921
16906.6284927
17233.1875774
17343.7911684
17379.7688093
17397.6847876
17411.6158902
17424.4049757
17436.6475662
17448.5306597
17460.0703632
17471.3317908
17482.3347919
17493.1150229
17503.7689194
17514.2759049
17524.6281452
17534.8925258
17545.1236941
17555.319541
17565.5096805
17575.6155658
17585.6419514
17595.6789581
17605.7100628
17615.7373133
17624.8612779
17634.6238281
17644.1397032
17653.4557574
17662.5418747
17671.3875838
17679.8241682
17687.8289708
17695.4009764
17702.5421277
17709.1456973
17715.0661834
17720.25395
17724.7390269
17728.574764
17731.7434746
17734.1428324
17735.710656
17739.415946
226.836296593
226.836296593
226.836296593
226.836296593
226.836296593
226.836296593
226.836296593
226.836296593
226.836296593
226.836296593
226.836296593
226.836296593
226.836296593
226.836296593
226.836296594
226.836296675
226.836301272
226.836551485
226.850113976
227.011370116
2052.92021553
5496.7218944
10554.2018624
13392.6410022
15172.0703161
16321.8585611
16942.0477751
17198.5359761
17282.597055
17312.9358683
17330.8329972
17345.8079467
17359.8838201
17373.4852062
17386.5949639
17399.3920819
17411.9012873
17424.1224474
17436.1072694
17447.872623
17459.5311019
17471.0312116
17482.4073652
17493.7619913
17504.1922673
17515.4161723
17526.4880312
17537.4502976
17548.4310401
17559.3263159
17570.0788287
17580.7095338
17591.1531605
17601.4027985
17611.3947685
17621.1959783
17629.7770997
17638.8130694
17647.3160448
17655.3228567
17662.799513
17669.7000911
17675.9256568
17681.4039371
17686.15655
17690.1576812
17693.3969567
17695.8437042
17697.4699664
17701.1348653
226.836296593
226.836296593
226.836296593
226.836296593
226.836296593
226.836296593
226.836296593
226.836296593
226.836296593
226.836296593
226.836296593
226.836296593
226.836296593
226.836296593
226.836296597
226.836296838
226.836310258
226.837056319
226.859584296
304.915926473
2640.56234005
5996.64060388
11414.1209029
13844.6433828
15443.3226576
16443.7467836
16951.3204723
17148.1762873
17213.4423863
17240.3387153
17258.7740868
17275.1058847
17290.5309224
17305.5438514
17320.0507613
17334.1488496
17347.9257582
17361.509768
17373.9990137
17387.0033855
17399.7810802
17412.4539487
17424.9296979
17437.2906202
17449.6099805
17461.7597682
17473.7911736
17485.7539607
17497.6903652
17508.627184
17520.2612481
17531.7281144
17542.9714251
17553.9209218
17564.5897662
17574.9224996
17584.8893524
17594.4087468
17603.4705347
17611.1002514
17619.0462199
17626.2833892
17632.8220632
17638.6137951
17643.6186068
17647.81022
17651.1621859
17653.6527196
17655.2769808
17658.7742031
226.836296593
226.836296593
226.836296593
226.836296593
226.836296593
226.836296593
226.836296593
226.836296593
226.836296593
226.836296593
226.836296593
226.836296593
226.836296593
226.836296593
226.836296605
226.836297281
226.836334475
226.838404579
226.878343752
509.802422047
3276.23877251
6686.39642031
12110.5668436
14256.8581286
15680.1791811
16531.9160559
16937.6511656
17086.759216
17137.8088774
17162.9220774
17182.2201761
17199.9226261
17216.9506956
17232.6723074
17248.6411868
17264.1874084
17279.2668673
17294.0548155
17308.5609139
17322.7870038
17336.7861962
17350.5848687
17364.2223984
17376.9814446
17390.318305
17403.4710816
17416.5536564
17429.446285
17442.1756628
17454.7680516
17467.3010145
17478.7619005
17490.8069811
17502.5150876
17513.9003023
17524.8778332
17535.4157243
17545.4736037
17554.9856771
17563.8940765
17572.1828318
17578.9412091
17585.8236683
17591.8811639
17597.1280262
17601.4927398
17604.9572115
17607.5224604
17609.2123247
17612.6651964
226.836296593
226.836296593
226.836296593
226.836296593
226.836296593
226.836296593
226.836296593
226.836296593
226.836296593
226.836296593
226.836296593
226.836296593
226.836296593
226.836296593
226.836296631
226.836298749
226.836414074
226.842750213
226.932754788
1102.52195968
4902.92309196
8929.57423621
12724.9274568
14630.9952297
15880.4249776
16589.0121074
16905.2923243
17015.6905083
17057.2877201
17081.573962
17101.8698295
17120.3488195
17138.7706884
17156.6765786
17174.0132121
17190.9097717
17207.4252218
17223.5862145
17238.6228812
17254.1211047
17269.3492979
17284.3340352
17299.1146499
17313.6367004
17328.0361492
17341.5535188
17355.6598758
17369.5537258
17383.2604853
17396.7013442
17409.9714439
17423.0481284
17435.8846023
17447.4688296
17459.5510922
17471.1289328
17482.235412
17492.8291677
17502.8551642
17512.2707108
17520.9664664
17528.8768307
17536.0363738
17541.4775319
17546.9924803
17551.5167476
17555.1353097
17557.8134991
17559.5428695
17562.8436893
226.836296592
226.836296592
226.836296592
226.836296592
226.836296592
226.836296592
226.836296592
226.836296592
226.836296592
226.836296592
226.836296592
226.836296592
226.836296593
226.836296594
226.836296691
226.836302076
226.836589958
226.851809161
227.030374692
2145.76823883
5530.98356706
10497.4332861
13273.2778946
14964.5819172
16040.6443551
16615.3038579
16854.3084658
16936.4845713
16971.7202852
16995.9744012
17017.6178754
17038.1149297
17058.047208
17077.3904507
17095.5309357
17113.7568137
17131.5759994
17149.0184965
17166.0446347
17182.791418
17199.2568103
17214.6387011
17230.560544
17246.260448
17261.7718396
17277.0191914
17292.0678858
17306.1872608
17320.852205
17335.1778997
17349.2726704
17363.115544
17376.5773647
17389.7716931
17401.6852024
17413.9220779
17425.5851629
17436.6850358
17447.1785388
17456.9996871
17466.0317522
17474.2155154
17481.6704193
17487.4408355
17493.194028
17497.9512983
17501.7068339
17504.4414312
17506.1778333
17509.3024016
226.836296592
226.836296592
226.836296592
226.836296592
226.836296592
226.836296592
226.836296592
226.836296592
226.836296592
226.836296592
226.836296592
226.836296592
226.836296593
226.836296599
226.836296966
226.836317021
226.837415663
226.865074338
353.200921988
2779.12257744
6123.11253617
11473.3847217
13773.4927338
15255.8832682
16160.3716014
16612.4188501
16787.7966488
16850.7702406
16882.8710509
16907.8792474
16930.8917294
16953.0690505
16973.7633391
16994.5478176
17014.676258
17034.3393645
17053.5108709
17071.5221996
17089.8077382
17107.8189628
17125.4007608
17142.8142217
17159.0519138
17175.84888
17192.3559035
17208.5970462
17224.6100213
17240.4812994
17255.2211482
17270.4333971
17285.3254236
17299.914105
17314.1306914
17327.9656841
17340.5262458
17353.4012721
17365.5774519
17377.2158867
17388.1650932
17398.3483342
17407.7593709
17416.3280849
17424.0584565
17429.9600332
17435.8458516
17440.7680001
17444.6726215
17447.5439632
17449.3766974
17452.414414
226.836296592
226.836296592
226.836296592
226.836296592
226.836296592
226.836296592
226.836296592
226.836296592
226.836296592
226.836296592
226.836296592
226.836296592
226.836296593
226.836296617
226.836297962
226.836370401
226.840303637
226.904387522
742.295759114
4307.61124901
7268.42523764
12257.9700321
14226.4454434
15502.7400004
16241.0825563
16583.9549136
16710.7304415
16760.3007081
16790.8690485
16817.020081
16840.8923096
16864.6033656
16887.4789045
16909.7670392
16930.6775467
16951.7272537
16972.1781525
16992.2267818
17011.081262
17030.2167303
17048.9283488
17067.4222336
17085.5576888
17102.6156744
17120.1803406
17137.4060437
17154.3762326
17171.1032711
17186.6431489
17202.7554585
17218.4116905
17233.7335015
17248.7068951
17263.2501278
17276.3303637
17289.6691969
17302.4194062
17314.523021
17325.8936836
17336.4784629
17346.2244591
17355.1520792
17362.2585151
17369.3171752
17375.3313829
17380.3443422
17384.3139765
17387.2295392
17389.0936007
17391.9875227
226.836296592
226.836296592
226.836296592
226.836296592
226.836296592
226.836296592
226.836296592
226.836296592
226.836296592
226.836296592
226.836296592
226.836296592
226.836296594
226.836296676
226.83630123
226.836542794
226.849260334
227.002960479
1845.91734159
5340.41379146
9937.96742377
12933.6096894
14626.3082338
15701.1115743
16284.2836334
16533.5393354
16624.8547231
16666.5066581
16696.1063709
16723.4092402
16749.4658266
16774.6607621
16798.3283766
16822.0082669
16844.9868294
16866.6519527
16888.4939547
16909.7193348
16930.6361218
16950.1529242
16970.1350242
16989.6625314
17008.8425465
17026.9408403
17045.476729
17063.6243089
17081.493459
17099.0979611
17115.4660437
17132.3423052
17148.8074676
17164.7882927
17180.35607
17194.5995987
17209.2048911
17223.1111067
17236.3337999
17248.871073
17260.6186889
17271.6264994
17280.8787899
17290.0626843
17298.2323553
17305.4284688
17311.5856194
17316.7131925
17320.7702348
17323.7426249
17325.6298344
17328.3656835
226.836296592
226.836296592
226.836296592
226.836296592
226.836296592
226.836296592
226.836296592
226.836296592
226.836296592
226.836296592
226.836296592
226.836296592
226.836296599
226.83629696
226.836316465
226.837367385
226.864778838
338.911165864
2723.55737278
6022.03921125
11220.4591554
13526.3555213
14969.715035
15845.9675553
16288.1880106
16464.7633129
16531.6693072
16569.3200509
16600.0804816
16628.8441255
16655.6935116
16682.3310999
16708.218114
16732.5146811
16756.8029047
16780.4941714
16802.8445728
16825.3222413
16847.2846384
16868.7989657
16889.0628803
16909.7236722
16929.9234914
16948.9885937
16968.4616913
16987.5296027
17006.250434
17024.672327
17041.8782451
17059.4366613
17076.5502984
17093.1821339
17109.4083898
17124.1953619
17139.2498068
17153.7061308
17167.4412222
17180.3830891
17192.5480595
17202.8789279
17213.2961863
17222.744196
17231.2093177
17238.6021201
17244.9081024
17250.1294487
17254.2685161
17257.2928182
17259.1977821
17261.755919
226.836296592
226.836296592
226.836296592
226.836296592
226.836296592
226.836296592
226.836296592
226.836296592
226.836296592
226.836296592
226.836296592
226.836296593
226.836296622
226.83629825
226.836384288
226.840959455
226.912963513
804.75337831
4425.21537219
7245.68859595
12155.5610888
14046.0950423
15250.0225384
15939.9979571
16259.8660386
16381.9802268
16434.7397391
16470.7491909
16501.8686905
16532.0872183
16561.148478
16588.601527
16615.8895821
16641.5811731
16667.2001848
16692.0490644
16715.5998744
16739.2194755
16762.2570165
16784.8701818
16806.1319041
16827.7906291
16849.009239
16868.9549067
16889.3508082
16909.2529865
16928.8342505
16947.2006467
16965.9684328
16984.1922887
17001.9766708
17019.2575004
17035.1604205
17051.3473451
17066.8499063
17081.6922665
17095.8874127
17108.2345749
17120.799789
17132.3478135
17142.9788674
17152.6296118
17161.3052124
17168.8598777
17175.2390686
17180.5790458
17183.8051527
17186.9755144
17188.9079386
17191.2844321
226.836296592
226.836296592
226.836296592
226.836296592
226.836296592
226.836296592
226.836296592
226.836296592
226.836296592
226.836296592
226.836296592
226.836296594
226.836296716
226.836303226
226.836640275
226.853717692
229.925468307
2176.50310985
5496.86934884
10136.051564
12914.5292668
14488.4639781
15463.935677
15984.063223
16205.503049
16290.3161054
16335.3704739
16370.4644154
16403.4869737
16434.4827643
16464.9484036
16493.8256458
16522.295165
16550.0081178
16576.1323579
16602.2982239
16626.9500547
16651.7180128
16675.809137
16698.6383309
16721.7758413
16744.2631842
16766.3262924
16787.1442913
16808.363454
16829.0657532
16848.5967898
16868.4871747
16887.8085253
16906.780991
16925.2068116
16942.1382295
16959.4354412
16976.0831994
16992.1102188
17006.4101803
17020.9140298
17034.537483
17047.2834561
17059.1148613
17069.9721488
17079.8911066
17087.7161837
17095.4543184
17101.9801987
17107.3726902
17111.6204794
17114.7031472
17116.6163541
17118.8144043
226.836296592
226.836296592
226.836296592
226.836296592
226.836296592
226.836296592
226.836296592
226.836296592
226.836296592
226.836296592
226.836296592
226.836296606
226.836297351
226.836336549
226.838404608
226.879197392
469.746214919
3054.7527984
6332.31805745
11490.605768
13559.4864275
14849.8359471
15609.7867276
15981.4024146
16129.2314556
16192.2993921
16233.8476921
16270.2433128
16303.9354182
16336.3376097
16368.1095533
16398.9472209
16427.9748278
16456.9136161
16484.2144388
16511.47755
16537.1957974
16563.0314373
16588.17005
16611.9558309
16635.8982352
16659.3529322
16681.4933854
16703.9181736
16725.7849462
16747.266066
16767.4286213
16787.9476376
16807.9550984
16826.5703256
16845.5224908
16863.7887289
16881.567858
16898.6916762
16914.1345174
16929.78396
16944.4739484
16958.3496463
16971.4425706
16982.5881858
16993.6868515
17003.6592556
17012.5079786
17020.2432888
17026.8619931
17032.3218067
17036.6346049
17039.7519452
17041.6643845
17043.6490181
226.836296592
226.836296592
226.836296592
226.836296592
226.836296592
226.836296592
226.836296592
226.836296592
226.836296592
226.836296592
226.836296594
226.836296674
226.83630097
226.836522993
226.847868262
226.98891571
1566.535656
5148.10232513
9009.45707887
12452.2107353
14101.6077593
15127.1997291
15691.239754
15941.1201256
16039.7890973
16091.6383738
16131.624965
16169.0950369
16204.1417489
16238.5467857
16270.9621271
16303.0083949
16333.2677934
16363.3252061
16391.6421487
16419.9531657
16446.678787
16473.378247
16499.5045721
16524.0571764
16548.9374801
16572.3795163
16596.0553531
16619.2284292
16641.9091498
16663.0505275
16684.6993674
16705.8354447
16725.5130713
16745.4560054
16764.7738585
16783.6035174
16800.7873901
16818.2708419
16834.9471689
16850.7962317
16865.8689059
16878.9616596
16892.2418666
16904.4707871
16915.6479031
16925.7342647
16934.7320025
16942.6533814
16948.3150656
16953.8783726
16958.2067544
16961.3278713
16963.2211641
16964.9938947
226.836296592
226.836296592
226.836296592
226.836296592
226.836296592
226.836296592
226.836296592
226.836296592
226.836296592
226.836296592
226.836296602
226.836297148
226.836325588
226.837803533
226.871436888
381.149435009
2811.33594089
6055.81462945
11022.0411253
13215.934979
14532.8753293
15317.1515063
15710.4383972
15872.0461843
15943.021396
15989.2282268
16029.4709427
16068.0629449
16104.4698155
16140.1434333
16173.8119482
16207.0158426
16238.3609985
16268.6769123
16298.686647
16327.9694067
16355.5273507
16383.1700495
16409.2515238
16435.410289
16460.9871044
16485.0937922
16509.5304005
16532.5087001
16555.6772099
16578.3608928
16600.6235249
16621.2512437
16642.2695399
16662.6780415
16681.5281226
16700.6735708
16719.0994386
16736.85413
16752.8267536
16768.9402127
16784.1383767
16798.44083
16811.7790348
16824.2135081
16834.3737648
16844.6359049
16853.6641955
16861.5150321
16868.2518559
16873.8120401
16878.152869
16881.2556522
16883.142959
16884.7358814
226.836296592
226.836296592
226.836296592
226.836296592
226.836296592
226.836296592
226.836296592
226.836296592
226.836296592
226.836296593
226.836296665
226.836300472
226.836494957
226.846313003
226.973090208
1354.17063179
4991.5612645
8216.03590953
12173.5661217
13835.1660718
14857.6784576
15423.6740064
15680.453
15785.2770944
15842.089488
15886.6729009
15928.5059029
15967.6618436
16005.2718835
16042.0728748
16076.7918193
16110.3716945
16143.4655189
16174.671133
16205.7366017
16234.9579638
16264.201234
16291.6992028
16319.284132
16346.1354819
16371.4786151
16397.0868245
16421.1987048
16445.5353412
16469.3346909
16491.5848687
16514.28653
16536.2422597
16557.7013651
16577.4644678
16597.5719916
16617.0248751
16634.7320667
16652.7113896
16669.7980989
16686.0225587
16701.42001
16714.8026469
16728.2414682
16740.6054714
16751.944467
16762.1628298
16771.3250481
16778.2091541
16784.9781426
16790.468877
16794.7218584
16797.7651448
16799.6156664
16800.9924321
226.836296592
226.836296592
226.836296592
226.836296592
226.836296592
226.836296592
226.836296592
226.836296592
226.836296592
226.836296604
226.836297212
226.83632838
226.83791912
226.873291234
387.24552477
2809.93135549
6020.68880079
10848.5533103
13034.5612898
14315.9248832
15073.8728291
15455.9603217
15616.1389557
15689.8267597
15740.4473995
15785.1629593
15827.3083143
15868.2447545
15906.853691
15944.0129176
15980.5007216
16014.8489551
16048.8137842
16080.8291108
16111.8949152
16142.7187127
16171.7932879
16200.7589175
16228.9827057
16255.5665
16282.3822789
16307.5172773
16333.0122264
16357.8035905
16381.0943472
16404.6982392
16427.6819557
16449.0460107
16470.7258035
16491.8116501
16511.0977152
16530.731325
16549.6438813
16567.8128724
16584.023781
16600.4089879
16615.7742046
16630.2343905
16643.7711121
16655.1152371
16666.5060851
16676.682043
16685.7343761
16693.6112598
16700.3078458
16705.7954682
16710.1445215
16712.0275884
16713.9276517
16715.0852531
226.836296592
226.836296592
226.836296592
226.836296592
226.836296592
226.836296592
226.836296592
226.836296592
226.836296594
226.836296693
226.836301821
226.836558579
226.849152296
227.002870548
1588.12365777
5110.61675402
8424.17653139
12120.3203111
13701.9896056
14662.8768142
15189.6110376
15429.1443749
15530.4694966
15590.2908501
15639.266949
15684.7433038
15727.9454728
15769.9424875
15809.5099148
15847.5487363
15884.0727626
15920.0227892
15953.8485091
15987.4011809
16018.9247631
16050.4846438
16080.0301766
16109.643187
16137.4984235
16165.5696271
16191.8854387
16218.4481473
16243.3298139
16268.4626562
16293.0064505
16315.9379637
16339.1575327
16361.8012819
16382.7177134
16403.9089964
16424.3969375
16444.15936
16462.1083016
16480.2426021
16497.5371271
16513.9813547
16528.3440152
16542.7948934
16556.2039539
16568.6238659
16579.9431896
16590.1651907
16597.9357499
16605.8086978
16612.4542658
16617.9216112
16622.1658333
16625.1775234
16626.9799919
16627.9071337
226.836296592
226.836296592
226.836296592
226.836296592
226.836296592
226.836296592
226.836296592
226.836296592
226.836296613
226.836297676
226.836350874
226.838999843
226.887538298
502.618123901
3069.19591421
6214.27298702
11010.8099399
13021.7477014
14197.091518
14880.6829221
15219.2524143
15363.5198429
15436.5847995
15490.7790974
15539.7275473
15586.0039068
15630.1024606
15672.2799506
15712.6841532
15752.1717549
15789.3462966
15825.1191264
15860.4250423
15893.594851
15926.5062275
15957.5751945
15987.6589701
16017.6093474
16046.8341917
16074.2650648
16101.9724729
16127.8235736
16154.0375167
16178.5049724
16203.2538094
16227.4131274
16249.758248
16272.4616767
16294.5191327
16314.7888468
16335.3123173
16355.0883043
16374.1144905
16391.1926345
16408.495288
16424.7907692
16440.1650082
16454.6633432
16466.7933436
16479.1840895
16490.4233182
16500.4902563
16509.3744224
16517.1858252
16522.5518034
16527.9683902
16532.106813
16535.0393296
16536.807065
16537.5145281
226.836296592
226.836296592
226.836296592
226.836296592
226.836296592
226.836296592
226.836296592
226.836296596
226.836296814
226.836308054
226.836873409
226.859133772
250.060598086
2271.18867896
5465.15061963
9376.42640782
12274.4104502
13688.5381269
14534.6999426
14983.7899138
15185.4432431
15278.1144328
15339.1873648
15392.0572574
15441.5340139
15488.4388604
15533.937257
15576.7583771
15617.7631785
15657.1136189
15694.9535331
15731.9896641
15766.8166034
15801.2816259
15833.8095446
15865.1971832
15896.5049386
15925.9093152
15955.3576867
15983.0353045
16010.8020605
16037.9375059
16063.2698866
16088.8944231
16112.7850411
16136.9739486
16160.4988595
16182.23974
16204.2901899
16225.6356128
16246.1953741
16264.7621589
16283.7946435
16301.8702651
16317.8951424
16334.178574
16349.3821979
16363.6121179
16376.985998
16387.9394369
16399.0377035
16408.9622501
16417.7266926
16425.3348465
16431.7857768
16437.1117736
16441.3294375
16442.9367683
16444.7487983
16445.2397625
226.836296592
226.836296592
226.836296592
226.836296592
226.836296592
226.836296592
226.836296593
226.836296657
226.836299877
226.836457347
226.844011149
226.949107027
998.79262673
4538.13731644
6781.20832287
11439.5396925
13146.6411063
14156.258226
14723.3869726
14994.6127132
15115.3347648
15185.6798872
15243.1690721
15296.1520647
15346.1603118
15393.7399954
15439.0457028
15482.3812375
15523.782255
15564.2178234
15602.3410791
15638.953046
15674.9678516
15708.8957964
15741.6865296
15774.2099158
15804.7457316
15835.3265014
15863.8680036
15892.6996322
15919.6157178
15946.7343662
15972.1100889
15997.8174994
16022.7829432
16045.9599836
16069.4397013
16092.1987215
16113.0956398
16134.3687055
16154.7827464
16174.5265983
16192.0778346
16210.0891993
16227.05138
16243.2157387
16256.9999247
16271.1684104
16284.1779555
16296.1971563
16307.2186194
16315.6333236
16324.3364043
16331.7903642
16338.088435