/*--------------------------------*- C++ -*----------------------------------*\
| =========                 |                                                 |
| \\      /  F ield         | foam-extend: Open Source CFD                    |
|  \\    /   O peration     | Version:     4.1                                |
|   \\  /    A nd           | Web:         http://www.foam-extend.org         |
|    \\/     M anipulation  |                                                 |
\*---------------------------------------------------------------------------*/
FoamFile
{
    version     2.0;
    format      ascii;
    class       volVectorField;
    location    "0.0008";
    object      U;
}
// * * * * * * * * * * * * * * * * * * * * * * * * * * * * * * * * * * * * * //

dimensions      [0 1 -1 0 0 0 0];

internalField   nonuniform List<vector> 
8400
(
(16999.9999916 5.73079603566e-09 6.55194339188e-11)
(16999.9999916 5.82110330337e-09 6.5317432295e-11)
(16999.9999917 5.90967169664e-09 6.51182802253e-11)
(16999.9999917 5.99652752201e-09 6.49227990079e-11)
(16999.9999917 6.08169764724e-09 6.47389893178e-11)
(16999.9999917 6.16520788357e-09 6.45577144631e-11)
(16999.9999917 6.24708509854e-09 6.43799318935e-11)
(16999.9999917 6.3273546058e-09 6.42060827068e-11)
(16999.9999917 6.4060422727e-09 6.40382949888e-11)
(16999.9999917 6.48317364992e-09 6.38728232789e-11)
(16999.9999917 6.55877395504e-09 6.37125541061e-11)
(16999.9999917 6.63286771531e-09 6.35556632345e-11)
(16999.9999918 6.70548064005e-09 6.34036110043e-11)
(16999.9999918 6.77663806563e-09 6.32519760326e-11)
(16999.9999918 6.84636570937e-09 6.30831041858e-11)
(16999.9999918 6.91476158122e-09 6.13277625568e-11)
(16999.9999918 6.98602652826e-09 -3.00518931363e-11)
(16999.9999918 7.29191637412e-09 -5.13383279992e-09)
(16999.9999905 1.96486612809e-08 -2.69697287147e-07)
(16999.9999162 6.59116516147e-07 -1.49499415728e-05)
(16999.9955123 8.56453483461e-06 -0.000227542357279)
(16999.7558911 -0.000538043016294 -0.00263450230233)
(16977.3779639 -0.0706410357808 -0.037252622011)
(16759.5482055 -1.80461589027 -0.114415504406)
(15351.2715706 -11.9763245268 -0.0766777752226)
(12036.9333955 -34.7449324127 0.0213274753249)
(8155.57058307 -49.8888583105 0.0412766911376)
(4964.35797687 -47.3092239061 0.0293189537728)
(2874.13049474 -26.4993691794 0.0182307457819)
(1760.23900308 6.74616214381 0.0103255903791)
(1294.6839123 44.3733234933 0.00548156390783)
(1136.93859857 80.7550805995 0.00316291648988)
(1080.65503574 113.935608365 0.00228005102821)
(1049.54463987 143.799682152 0.00194567677568)
(1023.17416874 170.632768042 0.00177867412593)
(996.78500434 194.783627727 0.00166278145772)
(969.465265004 216.576182619 0.00156510054807)
(941.177407806 236.295845542 0.00147726399608)
(912.059848409 254.191021566 0.00139640802144)
(882.275708591 270.471296894 0.00131868905802)
(851.97619689 285.342234678 0.00124276369086)
(821.288023225 298.964062043 0.00117041987944)
(790.319308967 311.482091282 0.00110172213145)
(759.157134789 323.025132758 0.00103644507488)
(727.948779769 333.706338593 0.000974045355505)
(696.609387142 343.621827544 0.000911340226517)
(665.198689324 352.876069275 0.000847502283933)
(633.935391462 361.540004255 0.000784579076993)
(602.78438606 369.682990674 0.000722011975352)
(571.777484875 377.365831674 0.000657676365787)
(540.976323051 384.640302604 0.00059023270231)
(510.440184618 391.548800483 0.00051861953479)
(480.182960031 398.126640299 0.000441407266149)
(450.184629482 404.403178625 0.000356210057684)
(420.438662541 410.401322041 0.000259743035806)
(390.971123049 416.136362716 0.000148426718092)
(361.812210077 421.615713691 1.83904598709e-05)
(332.976588316 426.840039964 -0.000135414296267)
(304.474775699 431.804712126 -0.000319826999538)
(276.329316095 436.499243058 -0.000543352879207)
(248.573431953 440.90742908 -0.000816175359162)
(221.218006984 445.008307189 -0.00115102088136)
(194.250341921 448.778109792 -0.00156446429569)
(167.66451991 452.190853391 -0.00207792595002)
(141.480684097 455.218979314 -0.00271831716438)
(115.731267694 457.833616093 -0.00351905136795)
(90.43868156 460.005807854 -0.00452188375097)
(65.6113962089 461.70782441 -0.00577911524949)
(41.2877626688 462.913796112 -0.00732476954739)
(29.3133573464 463.58925165 -0.00874665198277)
(16999.9999939 3.92433515337e-09 2.09033844993e-12)
(16999.9999939 3.9871937291e-09 2.22697946905e-12)
(16999.9999939 4.04887147613e-09 2.35991958646e-12)
(16999.9999939 4.10938472925e-09 2.48862683561e-12)
(16999.9999939 4.16875043856e-09 2.61488343918e-12)
(16999.9999939 4.22698519346e-09 2.73717109557e-12)
(16999.9999939 4.28410531041e-09 2.85649332973e-12)
(16999.9999939 4.34012775226e-09 2.97238628891e-12)
(16999.999994 4.39506900309e-09 3.08498687865e-12)
(16999.999994 4.448946048e-09 3.19496676064e-12)
(16999.999994 4.50177538569e-09 3.30122452264e-12)
(16999.999994 4.553573388e-09 3.40481986121e-12)
(16999.999994 4.60435609765e-09 3.50650046646e-12)
(16999.999994 4.65414020056e-09 3.60415173277e-12)
(16999.999994 4.70295697999e-09 3.67269563507e-12)
(16999.999994 4.7517000631e-09 2.2057608643e-12)
(16999.999994 4.85132701292e-09 -8.56170064962e-11)
(16999.9999939 7.95061917933e-09 -4.97853067199e-09)
(16999.999987 1.81893590211e-07 -2.5656840413e-07)
(16999.9995764 1.04862857851e-05 -1.40303268566e-05)
(16999.9770844 0.000526973830234 -0.000164288894022)
(16997.9835253 0.0522809885881 -0.00173240802589)
(16951.2918364 0.382737450755 -0.0168053080121)
(16471.8562703 4.52437028073 -0.0359050881758)
(14288.9471944 27.2083376241 -0.0147597948628)
(10493.8735601 74.4549313597 0.00764628713857)
(6754.38486001 127.090902192 0.00957420616007)
(3957.52624236 176.168701293 0.00700345752086)
(2259.27922699 218.834565491 0.00458900186502)
(1429.97375155 254.72045215 0.00279336581882)
(1112.96940838 284.416476045 0.00171707319664)
(1004.4177048 310.015710591 0.00124902052691)
(956.122222175 333.216563469 0.00110142615662)
(922.330799609 354.689962087 0.00106093371949)
(891.761142377 374.686856906 0.00104410403117)
(862.002046802 393.338553551 0.00102830104566)
(832.550955503 410.74558132 0.00100844427087)
(803.313389285 427.016375356 0.00098418105304)
(774.209847607 442.240516019 0.000956456995164)
(745.412697687 456.500802317 0.000925995149503)
(716.944304124 469.871088817 0.000893298180952)
(688.64718409 482.433526674 0.000858884931837)
(660.596380913 494.255044431 0.00082314636694)
(632.80645829 505.399167623 0.000786423185858)
(605.292222198 515.924244422 0.000748782269202)
(578.071785111 525.881222135 0.00070977147261)
(551.157290209 535.323392888 0.000669181235108)
(524.555840953 544.292445296 0.000627124448032)
(498.272466532 552.827112683 0.000583217587443)
(472.319349724 560.961289092 0.000536711230226)
(446.712115687 568.723886625 0.000486860169057)
(421.47166621 576.138558278 0.000432899369716)
(396.608393473 583.224071656 0.000373939678934)
(372.113956706 589.995609763 0.000308857639384)
(347.979204954 596.463989771 0.00023633602972)
(324.202222225 602.634951873 0.000154995410064)
(300.783312619 608.509253385 6.34712717184e-05)
(277.734327525 614.083165477 -3.9602050086e-05)
(255.068399828 619.348628817 -0.000155596406109)
(232.789843884 624.294485771 -0.000285732897412)
(210.903474902 628.906177986 -0.000430821294067)
(189.40658493 633.166834051 -0.000591084159635)
(168.291232577 637.058402377 -0.000765972430171)
(147.555203479 640.562570071 -0.000953759389659)
(127.205314424 643.660843446 -0.00115091994405)
(107.244834713 646.335622913 -0.00135137634008)
(87.6723561893 648.571058171 -0.0015455936042)
(68.484279008 650.353821312 -0.00171943140932)
(49.7019594544 651.67314051 -0.00184593462202)
(40.5179629289 652.375553942 -0.00185393544014)
(16999.9999953 2.41974255709e-09 -1.86907139085e-12)
(16999.9999953 2.45987827027e-09 -1.84723256687e-12)
(16999.9999953 2.49929707434e-09 -1.8259600614e-12)
(16999.9999953 2.5380073171e-09 -1.80535938216e-12)
(16999.9999953 2.57601749932e-09 -1.78449779807e-12)
(16999.9999953 2.61333687226e-09 -1.76387272143e-12)
(16999.9999953 2.64997356996e-09 -1.74311013809e-12)
(16999.9999953 2.68593623684e-09 -1.72174013584e-12)
(16999.9999953 2.7212337205e-09 -1.70100837307e-12)
(16999.9999953 2.75587484167e-09 -1.68047795643e-12)
(16999.9999953 2.78986854961e-09 -1.65897208821e-12)
(16999.9999953 2.82322407383e-09 -1.63803135263e-12)
(16999.9999953 2.85595022607e-09 -1.61802188634e-12)
(16999.9999953 2.88805884939e-09 -1.59866758038e-12)
(16999.9999953 2.91972872829e-09 -1.61767189094e-12)
(16999.9999953 2.96082414493e-09 -3.81693593426e-12)
(16999.9999953 3.5812136149e-09 -1.29377968747e-10)
(16999.9999946 3.76635697935e-08 -6.93179131437e-09)
(16999.9999553 1.97983133719e-06 -3.7233336552e-07)
(16999.9976001 0.000116630302261 -1.28998681706e-05)
(16999.8697789 0.00611422715193 -0.000141774364754)
(16987.6372946 0.589907761573 -0.00210718783485)
(16845.2583687 5.46382844194 -0.0107001142572)
(15766.7280168 42.799927303 -0.0128138581063)
(12759.7481122 142.336159628 -0.00174965723766)
(8834.02027605 277.085197145 0.00350893460129)
(5420.7617324 397.678848959 0.00305421098742)
(3091.11884557 485.968653333 0.00214107279616)
(1794.45323868 543.161417155 0.00138728498294)
(1224.31874418 577.274426777 0.000871575035674)
(1021.76741971 598.410154374 0.000608936678695)
(945.613000893 614.435949944 0.000524356767174)
(902.23401294 628.730597411 0.000515791544488)
(866.753330119 642.221216478 0.000527301727825)
(833.642773766 655.129998772 0.000540685889237)
(801.632012138 667.522092298 0.000551427015814)
(770.602375765 679.413159996 0.000558544869893)
(740.47511783 690.829708375 0.00056196702736)
(711.029653187 701.798123476 0.000562005563076)
(682.295431149 712.336609605 0.000559047915844)
(654.246995058 722.456895493 0.000553323278299)
(626.851409261 732.180834368 0.000544927713888)
(600.082853983 741.527695579 0.000534015281548)
(573.916061265 750.516275567 0.000520739077477)
(548.325568046 759.16493501 0.000505159764608)
(523.292735497 767.490512465 0.000487265849606)
(498.800669243 775.508642496 0.00046698063984)
(474.830259165 783.233617129 0.000444166979362)
(451.360009057 790.67810824 0.000418624323741)
(428.376394161 797.852245165 0.000390091479225)
(405.877675173 804.763311163 0.000358254440376)
(383.861337222 811.416903048 0.00032276138809)
(362.318716092 817.816507134 0.000283234528814)
(341.234315432 823.963536825 0.000239288418449)
(320.585906798 829.856909875 0.000190564408155)
(300.356548729 835.492617574 0.000136748385052)
(280.541037023 840.863777759 7.75865157994e-05)
(261.13499618 845.962073822 1.29298490774e-05)
(242.131121031 850.777057807 -5.7210151734e-05)
(223.519382546 855.296492536 -0.000132598634292)
(205.285633922 859.506321556 -0.000212717205698)
(187.416851003 863.391634396 -0.000296741478676)
(169.910622513 866.936999062 -0.00038353990438)
(152.767428934 870.128172063 -0.000471649488572)
(135.982656793 872.952304693 -0.000559254353559)
(119.548885051 875.397957977 -0.000644219415306)
(103.452088406 877.455666229 -0.000724199364193)
(87.6786819765 879.118172759 -0.000796848507785)
(72.240197739 880.379594805 -0.000858762559469)
(64.6930765657 881.031797569 -0.000887777313091)
(16999.9999962 1.61228471571e-09 -1.0573673815e-12)
(16999.9999962 1.63941332747e-09 -1.06193358188e-12)
(16999.9999962 1.66607006775e-09 -1.06623134477e-12)
(16999.9999962 1.69226009411e-09 -1.07025893603e-12)
(16999.9999962 1.7179886815e-09 -1.07451070453e-12)
(16999.9999962 1.7432609053e-09 -1.07805696789e-12)
(16999.9999962 1.76808312198e-09 -1.08148279357e-12)
(16999.9999962 1.79246009299e-09 -1.08442737336e-12)
(16999.9999962 1.81639725407e-09 -1.08731214716e-12)
(16999.9999962 1.83989970792e-09 -1.08960870269e-12)
(16999.9999962 1.86297282799e-09 -1.09197514726e-12)
(16999.9999962 1.88562252344e-09 -1.09467851357e-12)
(16999.9999962 1.90785460371e-09 -1.09645327954e-12)
(16999.9999962 1.92969080409e-09 -1.09987907013e-12)
(16999.9999962 1.95210950866e-09 -1.1742961211e-12)
(16999.9999962 2.0322664949e-09 -5.29875864062e-12)
(16999.9999962 5.51940868217e-09 -2.36998589441e-10)
(16999.9999934 2.07447693536e-07 -1.23588032716e-08)
(16999.999829 1.2137313654e-05 -6.85635990498e-07)
(16999.9904094 0.000686599541646 -1.13531619097e-05)
(16999.280445 0.052272625225 -0.000130897527782)
(16967.4805544 2.16282641433 -0.0018769733506)
(16651.7497307 20.9826773276 -0.00543258857605)
(14893.2457768 124.584604202 -0.00348964979606)
(11311.0535498 329.796902381 0.000595902614736)
(7456.47834111 550.586258941 0.00146336852389)
(4426.56517015 725.071525332 0.00111694819397)
(2509.39684831 837.718738792 0.000744552048559)
(1528.16933494 898.046382351 0.000463586662275)
(1134.94705557 924.358478745 0.000294673653242)
(997.782567776 935.256144262 0.000229104271614)
(937.556294056 941.507747839 0.000222838250613)
(896.22065841 946.73105978 0.000236973745101)
(859.782528517 951.788842769 0.000255005064061)
(825.321259355 956.842213519 0.000272287864973)
(792.124011268 961.916689002 0.000287709701798)
(760.174410512 966.99685572 0.000301092819432)
(729.393008758 972.061072641 0.000312390466201)
(699.546623962 977.111602358 0.000321482031621)
(670.650946784 982.143392808 0.000328364221856)
(642.666131287 987.143720972 0.000333125140661)
(615.551548008 992.10474439 0.000335777624621)
(589.268695279 997.020302142 0.000336299657012)
(563.780873221 1001.88505483 0.000334671242229)
(539.04977225 1006.69466896 0.000330849362547)
(515.040554905 1011.44541468 0.000324770081855)
(491.720029184 1016.13366905 0.00031635285981)
(469.049978502 1020.75591539 0.000305497083631)
(446.988293285 1025.30861374 0.000292087184289)
(425.502742256 1029.78701767 0.000276003477276)
(404.586651053 1034.18386624 0.000257119436326)
(384.241221609 1038.49057121 0.000235298921367)
(364.44997275 1042.69941329 0.000210418644626)
(345.175533751 1046.80261871 0.000182398834827)
(326.374947423 1050.79123427 0.000151216630814)
(308.026451424 1054.65374644 0.0001169044788)
(290.139616456 1058.37596875 7.95437266376e-05)
(272.720728029 1061.94388924 3.92556815649e-05)
(255.745632113 1065.34549426 -3.71369463356e-06)
(239.167591477 1068.57187895 -4.89140157901e-05)
(222.943975467 1071.60350384 -9.58200371147e-05)
(207.059476994 1074.42803773 -0.000143864076181)
(191.530868663 1077.02981598 -0.000192337261647)
(176.379085383 1079.394641 -0.000240439104113)
(161.594832183 1081.51220463 -0.000287320079107)
(147.14800658 1083.37471117 -0.000332077835371)
(133.00426544 1084.97580756 -0.000373804656559)
(119.142291354 1086.31021524 -0.000411650855425)
(105.573502896 1087.37288515 -0.000444522320631)
(98.9283327122 1087.91224657 -0.000459886475799)
(16999.9999969 1.14204538314e-09 -4.88020793017e-13)
(16999.9999969 1.1614092435e-09 -4.93159966675e-13)
(16999.9999969 1.18044148138e-09 -4.98170945464e-13)
(16999.9999969 1.19914516444e-09 -5.03033159414e-13)
(16999.9999969 1.21752391029e-09 -5.08032125316e-13)
(16999.9999969 1.23558116069e-09 -5.13068007842e-13)
(16999.9999969 1.25332064897e-09 -5.18012562615e-13)
(16999.9999969 1.27074604801e-09 -5.22443865774e-13)
(16999.9999969 1.28786146021e-09 -5.26842603439e-13)
(16999.9999969 1.30467010338e-09 -5.31444333241e-13)
(16999.9999969 1.32117569995e-09 -5.35597476551e-13)
(16999.9999969 1.33738194826e-09 -5.39661625852e-13)
(16999.9999969 1.35329424812e-09 -5.4346480047e-13)
(16999.9999969 1.36900359041e-09 -5.49629193224e-13)
(16999.9999969 1.38961852525e-09 -6.89290775399e-13)
(16999.9999968 1.71308711518e-09 -8.35697045576e-12)
(16999.9999967 1.97311249031e-08 -4.34678772395e-10)
(16999.9999858 1.06251153983e-06 -2.23717490653e-08)
(16999.9993327 6.36751623658e-05 -1.22452972646e-06)
(16999.9634602 0.0034589137858 -1.42175601776e-05)
(16996.6206453 0.325526192694 -0.000170834951153)
(16934.3469154 5.48050564322 -0.00145388270854)
(16325.4360001 54.9429736647 -0.00268113689731)
(13905.1226921 250.64133423 -0.000857540256207)
(10034.6803545 564.034000862 0.000638695158059)
(6378.8626759 857.601447115 0.000672564839745)
(3717.20799273 1069.9167144 0.000473221493388)
(2140.33548823 1194.33717343 0.000299776097109)
(1393.92658301 1250.76648866 0.000178236446948)
(1115.18662573 1267.8641703 0.000114768550983)
(1014.49195276 1269.79539181 9.7370422011e-05)
(962.243514458 1267.8600351 0.000102407416415)
(921.774261807 1265.30491085 0.000114387004214)
(884.732674913 1262.87151751 0.00012773486918)
(849.465213054 1260.69485033 0.000140910157067)
(815.592982883 1258.79470985 0.000153461171034)
(782.991269373 1257.17062496 0.00016521917797)
(751.511466424 1255.812211 0.000176048768978)
(721.250533405 1254.69605396 0.000185796542736)
(692.157646667 1253.80922945 0.000194347683346)
(664.00774793 1253.15806168 0.000201611827487)
(636.823995893 1252.72309731 0.00020749786278)
(610.571370866 1252.49072716 0.000211930754408)
(585.206483704 1252.44916427 0.00021481598748)
(560.692744969 1252.58416147 0.000215999819777)
(536.998219134 1252.89381923 0.000215379263867)
(514.078560028 1253.36836315 0.000212939701849)
(491.883636678 1253.98880124 0.000208601239061)
(470.368451041 1254.74693297 0.000202225475188)
(449.503612414 1255.63070778 0.000193728514613)
(429.279398783 1256.62650014 0.000183066426408)
(409.694117265 1257.71965152 0.000170203513438)
(390.717667891 1258.89785699 0.000155121950319)
(372.285505244 1260.15155634 0.000137835956655)
(354.347324355 1261.46933575 0.00011840414475)
(336.897648163 1262.83480896 9.69327969794e-05)
(319.965486422 1264.22831293 7.35738244251e-05)
(303.565047895 1265.63186357 4.8525156182e-05)
(287.725064349 1267.02613736 2.2037749976e-05)
(272.179274669 1268.42130901 -5.57471962873e-06)
(256.86494414 1269.80858535 -3.39442060827e-05)
(241.970933469 1271.15275386 -6.26567316996e-05)
(227.474158357 1272.44201062 -9.12662511166e-05)
(213.403425237 1273.66072844 -0.000119309032971)
(199.725365331 1274.80129946 -0.000146314322853)
(186.366066899 1275.86168527 -0.000171813957769)
(173.268839337 1276.83959321 -0.000195359487094)
(160.426644019 1277.72947618 -0.000216543371318)
(147.880278708 1278.52287918 -0.000234912463056)
(141.745501506 1278.91995668 -0.000243502216366)
(16999.9999973 8.45278461452e-10 -2.32097621403e-13)
(16999.9999973 8.59692583064e-10 -2.35306021345e-13)
(16999.9999973 8.73862256287e-10 -2.38188920922e-13)
(16999.9999973 8.87789944268e-10 -2.40685109296e-13)
(16999.9999973 9.01478492661e-10 -2.43689104277e-13)
(16999.9999973 9.14929786231e-10 -2.46644820609e-13)
(16999.9999973 9.28146433333e-10 -2.4890031166e-13)
(16999.9999973 9.41131277618e-10 -2.51648959078e-13)
(16999.9999973 9.53886873745e-10 -2.54630348644e-13)
(16999.9999973 9.66415884486e-10 -2.57380083271e-13)
(16999.9999973 9.78720484084e-10 -2.60293928087e-13)
(16999.9999973 9.90804115116e-10 -2.62760753463e-13)
(16999.9999973 1.00267565932e-09 -2.65673965966e-13)
(16999.9999973 1.01471368824e-09 -2.71146242977e-13)
(16999.9999973 1.04881923718e-09 -4.47414385103e-13)
(16999.9999973 2.37699482019e-09 -1.01097299712e-11)
(16999.9999967 7.88451472683e-08 -5.37775934842e-10)
(16999.99996 4.47886925141e-06 -2.72962503058e-08)
(16999.9977619 0.000267350274143 -1.43794961033e-06)
(16999.8781743 0.0144073386121 -1.50722078888e-05)
(16988.4155323 1.38154595333 -0.000220536746825)
(16851.6244539 15.8962252767 -0.00113983995608)
(15803.2492187 126.662114373 -0.00134745929474)
(12841.0437265 433.496545255 -0.000156937231637)
(8942.53565435 837.428121804 0.000383928337189)
(5540.32265873 1186.17975195 0.000318382625428)
(3211.94004331 1420.8948683 0.000213640576685)
(1913.20652828 1546.58937382 0.000130376004733)
(1341.46631742 1594.27328934 7.59563641727e-05)
(1137.11836317 1601.75583406 5.13373206874e-05)
(1057.36972826 1595.7098906 4.73135797538e-05)
(1009.31737156 1586.65241201 5.21777088501e-05)
(969.071875023 1577.30442767 5.98102597024e-05)
(931.54418434 1568.24666078 6.82518915139e-05)
(895.682865258 1559.59221741 7.69365677927e-05)
(861.237953886 1551.36035399 8.56396088259e-05)
(828.106345301 1543.55215384 9.42006219399e-05)
(796.214185378 1536.1645376 0.000102480221302)
(765.501960889 1529.19529898 0.000110362211191)
(735.907364665 1522.63022677 0.000117719354971)
(707.371085585 1516.46544103 0.000124409042562)
(679.835962791 1510.6939061 0.000130307199827)
(653.263978954 1505.30552401 0.000135300367336)
(627.584231874 1500.29451652 0.000139273664453)
(602.962397064 1495.62542954 0.000142116956023)
(579.420870986 1491.27955459 0.00014372852972)
(556.521387002 1487.2959178 0.000144017817389)
(534.251833689 1483.66069236 0.000142903371245)
(512.754292644 1480.3399687 0.00014031482353)
(491.952072217 1477.32753715 0.000136198458267)
(471.849036054 1474.60674729 0.000130519967494)
(452.439361492 1472.16228212 0.00012326847118)
(433.684023433 1469.98224319 0.000114460008999)
(415.521322954 1468.05745862 0.000104138801789)
(397.893450727 1466.37849693 9.23785177277e-05)
(380.782263957 1464.93132962 7.92839347702e-05)
(364.21356332 1463.69692378 6.49956181974e-05)
(348.196975588 1462.65772597 4.96972019926e-05)
(332.693313394 1461.80202445 3.35997964972e-05)
(317.622385397 1461.12161475 1.69262213729e-05)
(302.914599016 1460.6158446 -6.74413714484e-08)
(288.561569872 1460.26989875 -1.70844721776e-05)
(274.602984459 1460.06894185 -3.38124668895e-05)
(261.07296949 1459.99103125 -4.99529018068e-05)
(247.957188662 1460.02993917 -6.5221109779e-05)
(235.197499894 1460.18373586 -7.93299960708e-05)
(222.737626947 1460.45151035 -9.20073169661e-05)
(210.552751398 1460.83008305 -0.000103012759641)
(198.658534193 1461.3126519 -0.000112112999053)
(192.787576988 1461.55698102 -0.000116234539628)
(16999.9999977 6.46452344117e-10 -1.14939400782e-13)
(16999.9999977 6.57531757882e-10 -1.16511768957e-13)
(16999.9999977 6.68424684164e-10 -1.18329089403e-13)
(16999.9999977 6.79132534807e-10 -1.19746626274e-13)
(16999.9999977 6.89656957362e-10 -1.21288169824e-13)
(16999.9999977 7.00000878423e-10 -1.23368140623e-13)
(16999.9999977 7.10165626041e-10 -1.24958871878e-13)
(16999.9999977 7.20153484846e-10 -1.26157754391e-13)
(16999.9999977 7.29966348706e-10 -1.27387592492e-13)
(16999.9999977 7.39606376388e-10 -1.29168099911e-13)
(16999.9999977 7.49075041628e-10 -1.30564433649e-13)
(16999.9999977 7.58374763439e-10 -1.32122603021e-13)
(16999.9999977 7.67526367028e-10 -1.33950584902e-13)
(16999.9999977 7.77586542733e-10 -1.4071011043e-13)
(16999.9999977 8.4933613031e-10 -4.51386585627e-13)
(16999.9999977 4.4711669202e-09 -1.76639195601e-11)
(16999.9999962 2.11616649661e-07 -9.19546834984e-10)
(16999.9999128 1.19952715522e-05 -4.99747633617e-08)
(16999.9949823 0.000705211996128 -1.11721459142e-06)
(16999.7254386 0.0382320373835 -1.24106275944e-05)
(16974.7644019 3.51747521389 -0.000200979846792)
(16733.2904809 35.113461916 -0.000666694018405)
(15236.2881142 228.631099188 -0.000516306362751)
(11861.9124863 656.163052693 3.26307946537e-05)
(8009.09994409 1140.06359662 0.000182314127812)
(4881.8192384 1527.22452551 0.000137756551654)
(2852.66098856 1771.54212024 8.82816971594e-05)
(1784.01950558 1890.74735296 5.1513045276e-05)
(1342.94128688 1927.0190984 2.97766638582e-05)
(1187.508383 1925.10615801 2.21273351572e-05)
(1120.01639948 1911.80432575 2.29534290072e-05)
(1074.07168213 1896.29184206 2.70550832178e-05)
(1033.69199197 1880.78045162 3.22086943071e-05)
(995.595137784 1865.71344507 3.77898640958e-05)
(959.093817778 1851.17297003 4.3615566252e-05)
(924.004991753 1837.17172388 4.95920932111e-05)
(890.245272036 1823.70881259 5.56351649875e-05)
(857.751443556 1810.7818202 6.16563064184e-05)
(826.462028681 1798.38783201 6.75621251386e-05)
(796.320732576 1786.52311829 7.32534972538e-05)
(767.275995441 1775.18356325 7.86267772396e-05)
(739.28007582 1764.36451389 8.35762006696e-05)
(712.299606511 1754.0598658 8.79941644876e-05)
(686.305146209 1744.26211394 9.17814006147e-05)
(661.261746097 1734.96624129 9.48564898577e-05)
(637.126671288 1726.1568893 9.71322502991e-05)
(613.843719213 1717.82893411 9.85114246523e-05)
(591.364249421 1709.98508699 9.89246175627e-05)
(569.646612328 1702.61639028 9.83308373459e-05)
(548.657916585 1695.71398935 9.66954012153e-05)
(528.393995853 1689.26436423 9.39939628213e-05)
(508.850620046 1683.25425265 9.02263634329e-05)
(489.9856111 1677.6792213 8.54218584521e-05)
(471.738876456 1672.5275872 7.96283593939e-05)
(454.069746034 1667.79452431 7.29129901778e-05)
(436.983621089 1663.46563917 6.53730862097e-05)
(420.49554505 1659.52488859 5.71324379253e-05)
(404.582520181 1655.96192718 4.83363141596e-05)
(389.186004347 1652.7724838 3.91505724573e-05)
(374.227118928 1649.95586212 2.97587127138e-05)
(359.65463615 1647.50812616 2.03590274228e-05)
(345.566914806 1645.40384273 1.1161259609e-05)
(331.831508442 1643.6517179 2.3817210376e-06)
(318.467739508 1642.23905023 -5.76505446329e-06)
(305.627982605 1641.13386225 -1.30697877466e-05)
(293.154810967 1640.35111659 -1.93330946682e-05)
(280.992376432 1639.89185081 -2.43705763416e-05)
(269.138114284 1639.74996488 -2.80174217166e-05)
(257.616390454 1639.9157948 -3.01327197464e-05)
(251.9193401 1640.00157168 -3.08306503461e-05)
(16999.999998 5.07213275185e-10 -5.75218453577e-14)
(16999.999998 5.15948988967e-10 -5.85470204077e-14)
(16999.999998 5.24538122367e-10 -5.94097333019e-14)
(16999.999998 5.3298292224e-10 -6.03958291594e-14)
(16999.999998 5.41284000041e-10 -6.06676971737e-14)
(16999.999998 5.49442681187e-10 -6.15505666988e-14)
(16999.999998 5.57460788368e-10 -6.23251828497e-14)
(16999.999998 5.65340384321e-10 -6.32887082846e-14)
(16999.999998 5.7308319094e-10 -6.3893514243e-14)
(16999.999998 5.80690533904e-10 -6.46830561073e-14)
(16999.999998 5.88162919554e-10 -6.54931222465e-14)
(16999.999998 5.95504085367e-10 -6.61571411729e-14)
(16999.999998 6.02780138673e-10 -6.7066010526e-14)
(16999.999998 6.13813716571e-10 -7.54245348016e-14)
(16999.999998 8.51252378621e-10 -5.00332521269e-13)
(16999.9999979 1.42766399166e-08 -2.39009337235e-11)
(16999.9999932 7.90706505781e-07 -1.22461901542e-09)
(16999.9997151 4.68214044646e-05 -6.73409714713e-08)
(16999.984207 0.0026009177026 -9.01174946182e-07)
(16998.678718 0.219084452466 -1.06116594625e-05)
(16959.6562426 6.38897140648 -0.000126638671446)
(16562.7036398 67.1647082203 -0.000308175286719)
(14590.4949305 365.593234907 -0.000158093834477)
(10933.5136066 910.571199088 4.25302088904e-05)
(7203.49612163 1459.77760019 6.69900970785e-05)
(4356.40334151 1871.31442931 4.64197215656e-05)
(2597.54507093 2115.57944129 2.82658580274e-05)
(1722.47982723 2223.29564173 1.60162071249e-05)
(1381.02749533 2247.37451842 1.00581799737e-05)
(1258.82493755 2236.94865922 9.31050710817e-06)
(1198.86308235 2217.26502812 1.13338301021e-05)
(1153.93390238 2196.00243088 1.44021618786e-05)
(1113.14126719 2174.95187357 1.78944134739e-05)
(1074.33604604 2154.4527946 2.16511051954e-05)
(1037.07079564 2134.56765653 2.56173192171e-05)
(1001.21593931 2115.30730454 2.97500560537e-05)
(966.70679357 2096.67244875 3.4002375489e-05)
(933.484774114 2078.66267686 3.83196374591e-05)
(901.483556229 2061.27917958 4.26395107907e-05)
(870.649908868 2044.52130383 4.68932251176e-05)
(840.935642971 2028.38786034 5.1006708217e-05)
(812.303205278 2012.87607709 5.49035685511e-05)
(784.715185865 1997.98742627 5.8508039161e-05)
(758.127402021 1983.71173883 6.17447495083e-05)
(732.503144815 1970.0488589 6.45412160835e-05)
(707.807233844 1956.99512138 6.68311254559e-05)
(684.005905602 1944.54742143 6.85558801254e-05)
(661.051303767 1932.70529906 6.96674203354e-05)
(638.883755772 1921.46947279 7.01303856027e-05)
(617.466230928 1910.83624388 6.99231476039e-05)
(596.800532846 1900.79551682 6.90393071938e-05)
(576.969161737 1891.32327339 6.7490079179e-05)
(557.777894133 1882.44426504 6.5306676869e-05)
(539.166683901 1874.16033264 6.25400554598e-05)
(521.245551279 1866.4436453 5.92598068694e-05)
(503.907751117 1859.30225757 5.5553261256e-05)
(487.159224771 1852.72458764 5.15254593611e-05)
(471.016078102 1846.69864439 4.7299610365e-05)
(455.45785935 1841.22016668 4.30170884387e-05)
(440.418161614 1836.29320471 3.88307173245e-05)
(425.830172589 1831.92424689 3.48946403907e-05)
(411.670251897 1828.1035454 3.13734907957e-05)
(397.956870783 1824.81984719 2.84457590321e-05)
(384.71944937 1822.06604224 2.62793338787e-05)
(371.95561944 1819.83324361 2.50287933557e-05)
(359.622257228 1818.12193751 2.4847173221e-05)
(347.670262953 1816.93398702 2.58767464209e-05)
(336.066648899 1816.26826597 2.82425892544e-05)
(324.809963725 1816.11767135 3.20411700599e-05)
(319.180054468 1816.05609496 3.42615347996e-05)
(16999.9999982 4.06370743822e-10 -2.81929015532e-14)
(16999.9999982 4.13401435344e-10 -2.86039829327e-14)
(16999.9999982 4.20314659831e-10 -2.91113099992e-14)
(16999.9999982 4.27111778548e-10 -2.96232479964e-14)
(16999.9999982 4.33794567489e-10 -3.00580315316e-14)
(16999.9999982 4.40363769197e-10 -3.0714906479e-14)
(16999.9999982 4.46820726038e-10 -3.10575702322e-14)
(16999.9999982 4.53166301159e-10 -3.16862203753e-14)
(16999.9999982 4.59401767208e-10 -3.21572123968e-14)
(16999.9999982 4.65528288952e-10 -3.29599178331e-14)
(16999.9999982 4.71547671354e-10 -3.33832253102e-14)
(16999.9999982 4.77464248435e-10 -3.36961795266e-14)
(16999.9999982 4.83478150032e-10 -3.42782804026e-14)
(16999.9999982 5.01216599569e-10 -4.11656030588e-14)
(16999.9999982 1.20798797024e-09 -3.774445065e-13)
(16999.999998 4.20903320861e-08 -1.76480672449e-11)
(16999.9999854 2.41027032641e-06 -8.40459704869e-10)
(16999.9992306 0.000144562573211 -4.27954612332e-08)
(16999.9577505 0.00791052472994 -4.47440727845e-07)
(16996.0704411 0.741005747241 -4.76436652198e-06)
(16927.6749417 12.818529075 -3.29509429486e-05)
(16287.9301957 123.623951758 -5.31065617302e-05)
(13853.6617129 542.332048874 -2.5454481482e-05)
(10047.7705595 1193.15163654 -6.81768339971e-06)
(6497.23689868 1791.82156998 -5.42897279664e-06)
(3931.45219466 2214.58367915 -4.3146628334e-06)
(2420.56225216 2450.35893687 -2.30592365743e-06)
(1710.47156668 2543.02675726 1.25099553595e-08)
(1445.50723598 2555.04883993 2.25033014316e-06)
(1346.30728192 2537.11319671 4.3001779549e-06)
(1291.00660519 2511.86387546 6.30449502885e-06)
(1246.3389472 2485.5389645 8.42511431564e-06)