/*--------------------------------*- C++ -*----------------------------------*\
| =========                 |                                                 |
| \\      /  F ield         | foam-extend: Open Source CFD                    |
|  \\    /   O peration     | Version:     4.1                                |
|   \\  /    A nd           | Web:         http://www.foam-extend.org         |
|    \\/     M anipulation  |                                                 |
\*---------------------------------------------------------------------------*/
FoamFile
{
    version     2.0;
    format      ascii;
    class       volScalarField;
    location    "0.0002";
    object      eMoins;
}
// * * * * * * * * * * * * * * * * * * * * * * * * * * * * * * * * * * * * * //

dimensions      [0 0 0 0 0 0 0];

internalField   nonuniform List<scalar> 
8400
(
9.91207424819e-163
9.91207424826e-163
9.91207424833e-163
9.91207424839e-163
9.91207424846e-163
9.91207424852e-163
9.91207424858e-163
9.91207424864e-163
9.9120742487e-163
9.91207424876e-163
9.91207424882e-163
9.91207424888e-163
9.91207424893e-163
9.91207424899e-163
9.91207424904e-163
9.91207424909e-163
9.91207424915e-163
9.9120742492e-163
9.91207424925e-163
9.9120742493e-163
9.91207424934e-163
9.91207424939e-163
9.91207424944e-163
9.91207424948e-163
9.91207424953e-163
9.91207424957e-163
9.91207424962e-163
9.91207424966e-163
9.91207424989e-163
9.91207426336e-163
9.91207520991e-163
9.91213833832e-163
9.91634946309e-163
1.00395705145e-162
8.00469301227e-63
7.25106979839e-12
5.36221090488e-08
1.11480086443e-05
2.06425120235e-05
2.52952186448e-05
2.71935436451e-05
2.79185945603e-05
2.81642476099e-05
2.82745643399e-05
2.83505696144e-05
2.84206999144e-05
2.84871091502e-05
2.85576081664e-05
2.86299167829e-05
2.87045021165e-05
2.87780667778e-05
2.88566817234e-05
2.89372129213e-05
2.90195186702e-05
2.91033286187e-05
2.91853358112e-05
2.92710267515e-05
2.93563455757e-05
2.94408270683e-05
2.95230751177e-05
2.95991094647e-05
2.96745555281e-05
2.97451685344e-05
2.98094083982e-05
2.98666438785e-05
2.99159505163e-05
2.99566265935e-05
2.99877952732e-05
3.0009212444e-05
3.00335658716e-05
9.91207423784e-163
9.91207423787e-163
9.91207423789e-163
9.91207423792e-163
9.91207423794e-163
9.91207423797e-163
9.91207423799e-163
9.91207423802e-163
9.91207423804e-163
9.91207423806e-163
9.91207423809e-163
9.91207423811e-163
9.91207423813e-163
9.91207423816e-163
9.91207423818e-163
9.9120742382e-163
9.91207423822e-163
9.91207423824e-163
9.91207423826e-163
9.91207423828e-163
9.9120742383e-163
9.91207423832e-163
9.91207423834e-163
9.91207423836e-163
9.91207423838e-163
9.91207423839e-163
9.91207423841e-163
9.91207423845e-163
9.91207424003e-163
9.91207434785e-163
9.9120817382e-163
9.91255270295e-163
9.94361084554e-163
1.04296686424e-162
2.99479273685e-18
5.07715400505e-09
4.48843259361e-06
1.65789629564e-05
2.36072664743e-05
2.67305160419e-05
2.78929360064e-05
2.82941551115e-05
2.84304814524e-05
2.85049980188e-05
2.85676582977e-05
2.86321514122e-05
2.86960630055e-05
2.87658997978e-05
2.88384379823e-05
2.89136914052e-05
2.89914095391e-05
2.9071188444e-05
2.91529154988e-05
2.92360210468e-05
2.93204175249e-05
2.94024059957e-05
2.94876556764e-05
2.95716485663e-05
2.96538635365e-05
2.97331269897e-05
2.98090112669e-05
2.98805237904e-05
2.99465940799e-05
3.0003291607e-05
3.00560378847e-05
3.01011311939e-05
3.01381232665e-05
3.01665799585e-05
3.01859955683e-05
3.02051035133e-05
9.91207423457e-163
9.91207423458e-163
9.9120742346e-163
9.91207423461e-163
9.91207423463e-163
9.91207423464e-163
9.91207423466e-163
9.91207423467e-163
9.91207423468e-163
9.9120742347e-163
9.91207423471e-163
9.91207423472e-163
9.91207423474e-163
9.91207423475e-163
9.91207423476e-163
9.91207423478e-163
9.91207423479e-163
9.9120742348e-163
9.91207423481e-163
9.91207423482e-163
9.91207423484e-163
9.91207423485e-163
9.91207423486e-163
9.91207423487e-163
9.91207423488e-163
9.91207423489e-163
9.9120742349e-163
9.91207423501e-163
9.91207424184e-163
9.91207470555e-163
9.91210661636e-163
9.91429482878e-163
1.00063889e-162
3.93655664822e-63
9.12285365969e-13
2.18967588792e-08
9.75705005952e-06
2.00506740629e-05
2.5254060304e-05
2.74142356726e-05
2.81802155764e-05
2.84365824848e-05
2.85261769499e-05
2.85916554298e-05
2.86516371477e-05
2.87137471089e-05
2.87760103784e-05
2.88443631741e-05
2.89156069544e-05
2.89896419442e-05
2.90659365342e-05
2.91444358686e-05
2.92244606166e-05
2.93056973283e-05
2.93882538301e-05
2.94678110802e-05
2.95497872631e-05
2.96303529697e-05
2.97081814953e-05
2.97832450575e-05
2.98550367749e-05
2.99222568562e-05
2.99841731124e-05
3.00367307346e-05
3.00854895512e-05
3.01268938773e-05
3.01608727022e-05
3.01868974669e-05
3.020460714e-05
3.02208789985e-05
9.91207423308e-163
9.91207423309e-163
9.9120742331e-163
9.91207423311e-163
9.91207423312e-163
9.91207423314e-163
9.91207423315e-163
9.91207423316e-163
9.91207423317e-163
9.91207423317e-163
9.91207423318e-163
9.91207423319e-163
9.9120742332e-163
9.91207423321e-163
9.91207423322e-163
9.91207423323e-163
9.91207423324e-163
9.91207423325e-163
9.91207423326e-163
9.91207423326e-163
9.91207423327e-163
9.91207423328e-163
9.91207423329e-163
9.9120742333e-163
9.9120742333e-163
9.91207423331e-163
9.91207423332e-163
9.91207423367e-163
9.91207425767e-163
9.91207593023e-163
9.91218502857e-163
9.91946253839e-163
1.00946655306e-162
9.43855436181e-42
5.02377964006e-10
5.85518430859e-07
1.31257724791e-05
2.19269302949e-05
2.60526788691e-05
2.76788873008e-05
2.82525273899e-05
2.84336120855e-05
2.85143031675e-05
2.85815146471e-05
2.86416430494e-05
2.87064483569e-05
2.87738544163e-05
2.88438264296e-05
2.89164743056e-05
2.89915822549e-05
2.90687157877e-05
2.91477867496e-05
2.92282060917e-05
2.93096538484e-05
2.93886131094e-05
2.94709138712e-05
2.95517367765e-05
2.96308933717e-05
2.97071375508e-05
2.97801856104e-05
2.98499222554e-05
2.99117194573e-05
2.99716862438e-05
3.00252126517e-05
3.00719413906e-05
3.01115444915e-05
3.01438083002e-05
3.01684284711e-05
3.01850495533e-05
3.02000053235e-05
9.91207423227e-163
9.91207423227e-163
9.91207423228e-163
9.91207423229e-163
9.9120742323e-163
9.91207423231e-163
9.91207423231e-163
9.91207423232e-163
9.91207423233e-163
9.91207423234e-163
9.91207423234e-163
9.91207423235e-163
9.91207423236e-163
9.91207423237e-163
9.91207423237e-163
9.91207423238e-163
9.91207423239e-163
9.91207423239e-163
9.9120742324e-163
9.91207423241e-163
9.91207423241e-163
9.91207423242e-163
9.91207423242e-163
9.91207423243e-163
9.91207423244e-163
9.91207423244e-163
9.91207423246e-163
9.91207423323e-163
9.91207428725e-163
9.91207809671e-163
9.91232982345e-163
9.92948335445e-163
1.02545549391e-162
1.20526386798e-29
2.89926812852e-09
2.80133427795e-06
1.52536033424e-05
2.2977995867e-05
2.6426025305e-05
2.77512681089e-05
2.82176772494e-05
2.83631931161e-05
2.84398154081e-05
2.85071063623e-05
2.85744604857e-05
2.86431327144e-05
2.87138827928e-05
2.87871458998e-05
2.88625616129e-05
2.89402396899e-05
2.90196314635e-05
2.91006024538e-05
2.91829720441e-05
2.92628168325e-05
2.93459338695e-05
2.94286009326e-05
2.95100146803e-05
2.95892671512e-05
2.96658519907e-05
2.97355197966e-05
2.98045237487e-05
2.98686934005e-05
2.99275611592e-05
2.99805585999e-05
3.00267647702e-05
3.00658526557e-05
3.00975268655e-05
3.01215541653e-05
3.01377542055e-05
3.01521240684e-05
9.91207423175e-163
9.91207423176e-163
9.91207423176e-163
9.91207423177e-163
9.91207423178e-163
9.91207423178e-163
9.91207423179e-163
9.9120742318e-163
9.9120742318e-163
9.91207423181e-163
9.91207423182e-163
9.91207423182e-163
9.91207423183e-163
9.91207423183e-163
9.91207423184e-163
9.91207423184e-163
9.91207423185e-163
9.91207423186e-163
9.91207423186e-163
9.91207423187e-163
9.91207423187e-163
9.91207423188e-163
9.91207423188e-163
9.91207423189e-163
9.91207423189e-163
9.9120742319e-163
9.91207423192e-163
9.91207423331e-163
9.91207433093e-163
9.91208114974e-163
9.91252397208e-163
9.94223069516e-163
1.04202764786e-162
2.15912139207e-18
5.06744386314e-09
4.48629282513e-06
1.65295927957e-05
2.35046578048e-05
2.65763471603e-05
2.77200707818e-05
2.81132860042e-05
2.82467219837e-05
2.83235612894e-05
2.83934331192e-05
2.84641029608e-05
2.8536600826e-05
2.86112570055e-05
2.86879412513e-05
2.87668201832e-05
2.88476875752e-05
2.89302119533e-05
2.90139867462e-05
2.9095451849e-05
2.91803657153e-05
2.92653668453e-05
2.93492896841e-05
2.94318266323e-05
2.95122649457e-05
2.9586296536e-05
2.96601557037e-05
2.97296103e-05
2.97944076176e-05
2.98536852282e-05
2.9906664496e-05
2.99528739845e-05
2.99919752504e-05
3.00236813191e-05
3.00444530248e-05
3.00609440899e-05
3.00786807757e-05
9.9120742314e-163
9.9120742314e-163
9.91207423141e-163
9.91207423142e-163
9.91207423142e-163
9.91207423143e-163
9.91207423143e-163
9.91207423144e-163
9.91207423144e-163
9.91207423145e-163
9.91207423145e-163
9.91207423146e-163
9.91207423146e-163
9.91207423147e-163
9.91207423147e-163
9.91207423148e-163
9.91207423148e-163
9.91207423149e-163
9.91207423149e-163
9.9120742315e-163
9.9120742315e-163
9.91207423151e-163
9.91207423151e-163
9.91207423151e-163
9.91207423152e-163
9.91207423152e-163
9.91207423156e-163
9.91207423369e-163
9.91207438162e-163
9.91208459246e-163
9.91273798098e-163
9.95558997194e-163
1.05811288885e-162
4.30348037275e-16
7.09727654022e-09
5.78111476957e-06
1.73533661372e-05
2.38169741344e-05
2.65545920491e-05
2.76183818312e-05
2.79632309343e-05
2.80893966472e-05
2.81680445148e-05
2.82419937667e-05
2.83168571559e-05
2.83936335534e-05
2.84725190515e-05
2.85534182784e-05
2.86361537082e-05
2.8720484031e-05
2.88032951861e-05
2.88901289694e-05
2.89774991351e-05
2.9065162153e-05
2.91521641594e-05
2.92382528639e-05
2.93225767552e-05
2.94013725261e-05
2.94802539943e-05
2.9555254029e-05
2.96261912657e-05
2.969183985e-05
2.97518769301e-05
2.98056685651e-05
2.98491362148e-05
2.98887867655e-05
2.99208859235e-05
2.99452785751e-05
2.99617966975e-05
2.99761871906e-05
9.91207423114e-163
9.91207423115e-163
9.91207423115e-163
9.91207423116e-163
9.91207423116e-163
9.91207423117e-163
9.91207423117e-163
9.91207423118e-163
9.91207423118e-163
9.91207423119e-163
9.91207423119e-163
9.9120742312e-163
9.9120742312e-163
9.9120742312e-163
9.91207423121e-163
9.91207423121e-163
9.91207423122e-163
9.91207423122e-163
9.91207423122e-163
9.91207423123e-163
9.91207423123e-163
9.91207423124e-163
9.91207423124e-163
9.91207423124e-163
9.91207423125e-163
9.91207423125e-163
9.9120742313e-163
9.91207423422e-163
9.91207443514e-163
9.91208809932e-163
9.91294903713e-163
9.96804597281e-163
1.07288735086e-162
1.46428522907e-14
9.10147657805e-09
6.72921633612e-06
1.78592215151e-05
2.38915232023e-05
2.65081979815e-05
2.74553685368e-05
2.77723146737e-05
2.78951689621e-05
2.79778128658e-05
2.8057324947e-05
2.81373278292e-05
2.82191687191e-05
2.83024095802e-05
2.83874760046e-05
2.84745092457e-05
2.85596461907e-05
2.8649289388e-05
2.8739556313e-05
2.88304238443e-05
2.89209364633e-05
2.90108509995e-05
2.90959846666e-05
2.91825916796e-05
2.92664317748e-05
2.93469962143e-05
2.94240861169e-05
2.94963121854e-05
2.95634561612e-05
2.96215042928e-05
2.96762788502e-05
2.9723913212e-05
2.97642542079e-05
2.97970668111e-05
2.98220365365e-05
2.98389735029e-05
2.98535312143e-05
9.91207423095e-163
9.91207423095e-163
9.91207423096e-163
9.91207423096e-163
9.91207423097e-163
9.91207423097e-163
9.91207423097e-163
9.91207423098e-163
9.91207423098e-163
9.91207423099e-163
9.91207423099e-163
9.91207423099e-163
9.912074231e-163
9.912074231e-163
9.91207423101e-163
9.91207423101e-163
9.91207423101e-163
9.91207423102e-163
9.91207423102e-163
9.91207423102e-163
9.91207423103e-163
9.91207423103e-163
9.91207423103e-163
9.91207423104e-163
9.91207423104e-163
9.91207423104e-163
9.9120742311e-163
9.91207423483e-163
9.91207448834e-163
9.91209149701e-163
9.9131471597e-163
9.97909033591e-163
7.1695560335e-64
6.56311267154e-14
1.13248160996e-08
7.40123863348e-06
1.82053770738e-05
2.39117887996e-05
2.6338589816e-05
2.72493967953e-05
2.75528736019e-05
2.76726190392e-05
2.77588603617e-05
2.7842401673e-05
2.79272623467e-05
2.80139376501e-05
2.81024909604e-05
2.81925931943e-05
2.82809529979e-05
2.83735487283e-05
2.84672621596e-05
2.85613650539e-05
2.86559126675e-05
2.87500644116e-05
2.88398960861e-05
2.89313036515e-05
2.90204600888e-05
2.91065734882e-05
2.91895761724e-05
2.92684541311e-05
2.93392853165e-05
2.94082547915e-05
2.94709231975e-05
2.95267654455e-05
2.9575515291e-05
2.96168713435e-05
2.96504543741e-05
2.9675901614e-05
2.96930994214e-05
2.97076359681e-05
9.9120742308e-163
9.9120742308e-163
9.9120742308e-163
9.91207423081e-163
9.91207423081e-163
9.91207423081e-163
9.91207423082e-163
9.91207423082e-163
9.91207423083e-163
9.91207423083e-163
9.91207423083e-163
9.91207423084e-163
9.91207423084e-163
9.91207423084e-163
9.91207423085e-163
9.91207423085e-163
9.91207423085e-163
9.91207423086e-163
9.91207423086e-163
9.91207423086e-163
9.91207423087e-163
9.91207423087e-163
9.91207423087e-163
9.91207423087e-163
9.91207423088e-163
9.91207423088e-163
9.91207423095e-163
9.9120742355e-163
9.9120745415e-163
9.91209478965e-163
9.91335127328e-163
9.98858222175e-163
1.59896397104e-63
1.78358231643e-13
1.35457435901e-08
8.00247919176e-06
1.84242632463e-05
2.38820586695e-05
2.61193599056e-05
2.69970673154e-05
2.7290594374e-05
2.74122492279e-05
2.75051799023e-05
2.75953423306e-05
2.76865451991e-05
2.77792314197e-05
2.78736250175e-05
2.79662771788e-05
2.80632320233e-05
2.81606361189e-05
2.82589035705e-05
2.83574749575e-05
2.84563274836e-05
2.85512417165e-05
2.86477523377e-05
2.87422433971e-05
2.88343911331e-05
2.89233570339e-05
2.90058530142e-05
2.90872639481e-05
2.91636163547e-05
2.92339937822e-05
2.92981401492e-05
2.9355497574e-05
2.94057543065e-05
2.94447524885e-05
2.94791740832e-05
2.95052247808e-05
2.95228315479e-05
2.95373016351e-05
9.91207423067e-163
9.91207423068e-163
9.91207423068e-163
9.91207423068e-163
9.91207423069e-163
9.91207423069e-163
9.91207423069e-163
9.9120742307e-163
9.9120742307e-163
9.9120742307e-163
9.91207423071e-163
9.91207423071e-163
9.91207423071e-163
9.91207423072e-163
9.91207423072e-163
9.91207423072e-163
9.91207423072e-163
9.91207423073e-163
9.91207423073e-163
9.91207423073e-163
9.91207423074e-163
9.91207423074e-163
9.91207423074e-163
9.91207423074e-163
9.91207423075e-163
9.91207423075e-163
9.91207423083e-163
9.91207423626e-163
9.91207459772e-163
9.91209849842e-163
9.91366996477e-163
9.99755282625e-163
2.61804573309e-63
3.92415010381e-13
1.60656453842e-08
8.41344940394e-06
1.85265784997e-05
2.37664306332e-05
2.58867931298e-05
2.66991615178e-05
2.6994153533e-05
2.71243919141e-05
2.722447052e-05
2.73212557495e-05
2.7418705063e-05
2.7517724235e-05
2.76148007703e-05
2.77162977566e-05
2.78186129084e-05
2.79217950827e-05
2.80255543148e-05
2.81262191661e-05
2.82296571724e-05
2.83321651994e-05
2.84323629734e-05
2.85305149847e-05
2.86223856104e-05
2.87149978576e-05
2.88035769591e-05
2.88876573911e-05
2.89662067993e-05
2.90385929035e-05
2.91011894841e-05
2.91601654104e-05
2.92119014656e-05
2.92556713505e-05
2.92909879615e-05
2.93176862957e-05
2.93356387221e-05
2.93500545875e-05
9.91207423057e-163
9.91207423057e-163
9.91207423058e-163
9.91207423058e-163
9.91207423058e-163
9.91207423059e-163
9.91207423059e-163
9.91207423059e-163
9.9120742306e-163
9.9120742306e-163
9.9120742306e-163
9.91207423061e-163
9.91207423061e-163
9.91207423061e-163
9.91207423061e-163
9.91207423062e-163
9.91207423062e-163
9.91207423062e-163
9.91207423062e-163
9.91207423063e-163
9.91207423063e-163
9.91207423063e-163
9.91207423063e-163
9.91207423064e-163
9.91207423064e-163
9.91207423064e-163
9.91207423074e-163
9.91207423718e-163
9.91207466928e-163
9.9121039864e-163
9.91410650119e-163
1.00069748441e-162
3.63101740512e-63
7.63915901406e-13
1.91507948213e-08
8.83462373429e-06
1.8606931574e-05
2.35681760407e-05
2.55960349562e-05
2.63969937055e-05
2.66710653186e-05
2.68050927584e-05
2.69136934473e-05
2.70180371411e-05
2.71230421412e-05
2.72289179285e-05
2.73327647518e-05
2.7440880382e-05
2.75492752567e-05
2.76583265201e-05
2.77643166438e-05
2.78736684676e-05
2.79822846759e-05
2.80896946946e-05
2.81947658239e-05
2.8293749328e-05
2.83926782302e-05
2.84884054818e-05
2.85801201277e-05
2.86635452643e-05
2.87447742379e-05
2.88196823321e-05
2.88875242105e-05
2.89480169616e-05
2.90012191602e-05
2.90463234127e-05
2.9082923929e-05
2.91070077947e-05
2.91256901133e-05
2.91401690417e-05
9.91207423049e-163
9.91207423049e-163
9.91207423049e-163
9.9120742305e-163
9.9120742305e-163
9.9120742305e-163
9.9120742305e-163
9.91207423051e-163
9.91207423051e-163
9.91207423051e-163
9.91207423052e-163
9.91207423052e-163
9.91207423052e-163
9.91207423052e-163
9.91207423053e-163
9.91207423053e-163
9.91207423053e-163
9.91207423053e-163
9.91207423054e-163
9.91207423054e-163
9.91207423054e-163
9.91207423054e-163
9.91207423055e-163
9.91207423055e-163
9.91207423055e-163
9.91207423055e-163
9.91207423067e-163
9.91207423839e-163
9.91207476887e-163
9.91211152278e-163
9.91465165189e-163
1.00174559483e-162
4.75985114922e-63
1.47023334693e-12
2.33148026218e-08
9.1999587821e-06
1.85938877179e-05
2.33695869517e-05
2.52980855597e-05
2.60435477529e-05
2.63175913452e-05
2.64579831284e-05
2.65741944059e-05
2.66873548753e-05
2.68003623011e-05
2.69112127496e-05
2.70260562397e-05
2.7140816222e-05
2.72561545184e-05
2.73682988756e-05
2.74835973051e-05
2.75983011681e-05
2.77123992038e-05
2.78214793675e-05
2.79313490137e-05
2.80382732573e-05
2.8141577722e-05
2.82377777716e-05
2.83331211316e-05
2.8423024881e-05
2.85070974183e-05
2.85842508773e-05
2.86543839234e-05
2.87135768641e-05
2.87682878281e-05
2.88145004144e-05
2.88520513175e-05
2.88806048836e-05
2.8899921207e-05
2.89147975693e-05
9.91207423041e-163
9.91207423042e-163
9.91207423042e-163
9.91207423042e-163
9.91207423043e-163
9.91207423043e-163
9.91207423043e-163
9.91207423043e-163
9.91207423044e-163
9.91207423044e-163
9.91207423044e-163
9.91207423044e-163
9.91207423045e-163
9.91207423045e-163
9.91207423045e-163
9.91207423045e-163
9.91207423046e-163
9.91207423046e-163
9.91207423046e-163
9.91207423046e-163
9.91207423047e-163
9.91207423047e-163
9.91207423047e-163
9.91207423047e-163
9.91207423047e-163
9.91207423048e-163
9.91207423062e-163
9.91207424019e-163
9.91207491535e-163
9.91212180867e-163
9.91534221502e-163
1.00300711014e-162
6.10806398451e-63
2.92370371799e-12
3.03986692414e-08
9.53691785339e-06
1.8590480525e-05
2.31093296662e-05
2.49615033029e-05
2.56717889529e-05
2.59397737178e-05
2.60840088803e-05
2.62085912917e-05
2.63308093787e-05
2.64498657145e-05
2.65720568062e-05
2.66946054005e-05
2.68172889252e-05
2.69365886135e-05
2.70592330047e-05
2.71806902072e-05
2.73016222175e-05
2.74179618626e-05
2.75354880311e-05
2.76504285089e-05
2.77618436106e-05
2.78664376226e-05
2.79699405e-05
2.8068973828e-05
2.81620494158e-05
2.8245616361e-05
2.83257896675e-05
2.83986598226e-05
2.84635970874e-05
2.8520000675e-05
2.85676165675e-05
2.86062720779e-05
2.86318825054e-05
2.86519916122e-05
2.86673293881e-05
9.91207423035e-163
9.91207423036e-163
9.91207423036e-163
9.91207423036e-163
9.91207423036e-163
9.91207423037e-163
9.91207423037e-163
9.91207423037e-163
9.91207423037e-163
9.91207423038e-163
9.91207423038e-163
9.91207423038e-163
9.91207423038e-163
9.91207423039e-163
9.91207423039e-163
9.91207423039e-163
9.91207423039e-163
9.91207423039e-163
9.9120742304e-163
9.9120742304e-163
9.9120742304e-163
9.9120742304e-163
9.9120742304e-163
9.91207423041e-163
9.91207423041e-163
9.91207423041e-163
9.91207423059e-163
9.91207424296e-163
9.91207512843e-163
9.9121359143e-163
9.91626503332e-163
1.00453570368e-162
7.85097942169e-63
6.79585961118e-12
4.14683283499e-08
9.8840144127e-06
1.85653449388e-05
2.28364956208e-05
2.45919186302e-05
2.52703237264e-05
2.55319790869e-05
2.56838425231e-05
2.58183420305e-05
2.5947002229e-05
2.60781511528e-05
2.62091357039e-05
2.6339748732e-05
2.64670926168e-05
2.65975368656e-05
2.67270083367e-05
2.68525218878e-05
2.69800360516e-05
2.7105712258e-05
2.72290446225e-05
2.7345950503e-05
2.74623721244e-05
2.75748260585e-05
2.76825271815e-05
2.77815082665e-05
2.78783692419e-05
2.7968210151e-05
2.8051190233e-05
2.81226605453e-05
2.81900868924e-05
2.82488736795e-05
2.82982560135e-05
2.8338148434e-05
2.83684315182e-05
2.83890502501e-05
2.84043861751e-05
9.9120742303e-163
9.9120742303e-163
9.9120742303e-163
9.91207423031e-163
9.91207423031e-163
9.91207423031e-163
9.91207423031e-163
9.91207423032e-163
9.91207423032e-163
9.91207423032e-163
9.91207423032e-163
9.91207423033e-163
9.91207423033e-163
9.91207423033e-163
9.91207423033e-163
9.91207423033e-163
9.91207423034e-163
9.91207423034e-163
9.91207423034e-163
9.91207423034e-163
9.91207423034e-163
9.91207423035e-163
9.91207423035e-163
9.91207423035e-163
9.91207423035e-163
9.91207423036e-163
9.91207423059e-163
9.91207424698e-163
9.91207541663e-163
9.91215426733e-163
9.9174602399e-163
1.00654162367e-162
9.97858873927e-63
2.4091223071e-11
6.42135983312e-08
1.0223736607e-05
1.84867750842e-05
2.25408909748e-05
2.42073672159e-05
2.48449693887e-05
2.50987284421e-05
2.52579926708e-05
2.53999078443e-05
2.55418910548e-05
2.56831434216e-05
2.58235239814e-05
2.59598598433e-05
2.60985451887e-05
2.623662882e-05
2.63704987581e-05
2.6506446889e-05
2.66405874894e-05
2.67692949677e-05
2.68985545808e-05
2.70246345668e-05
2.7146416894e-05
2.72604756819e-05
2.73725363993e-05
2.74788832188e-05
2.75792120277e-05
2.76689586328e-05
2.77546861003e-05
2.78322905069e-05
2.79016343583e-05
2.79624330709e-05
2.80098895612e-05
2.80513335436e-05
2.8082649074e-05
2.8103962631e-05
2.81192322259e-05
9.91207423025e-163
9.91207423025e-163
9.91207423026e-163
9.91207423026e-163
9.91207423026e-163
9.91207423026e-163
9.91207423027e-163
9.91207423027e-163
9.91207423027e-163
9.91207423027e-163
9.91207423027e-163
9.91207423028e-163
9.91207423028e-163
9.91207423028e-163
9.91207423028e-163
9.91207423028e-163
9.91207423029e-163
9.91207423029e-163
9.91207423029e-163
9.91207423029e-163
9.91207423029e-163
9.9120742303e-163
9.9120742303e-163
9.9120742303e-163
9.9120742303e-163
9.91207423031e-163
9.91207423062e-163
9.91207425288e-163
9.91207582446e-163
9.91217965384e-163
9.9190855434e-163
1.00926299633e-162
1.30091652919e-62
1.82127488286e-10
1.33101086091e-07
1.0640881606e-05
1.84880803331e-05
2.22219728663e-05
2.37593469408e-05
2.43779740072e-05
2.46364204013e-05
2.48070010059e-05
2.49605488889e-05
2.5113325681e-05
2.52646043837e-05
2.54117265962e-05
2.55608523009e-05
2.57087492174e-05
2.58520379397e-05
2.59970666157e-05
2.61401879031e-05
2.62781450977e-05
2.64165805445e-05
2.65519814787e-05
2.66801230569e-05
2.68075325133e-05
2.69297598382e-05
2.70432443293e-05
2.71538992651e-05
2.72577266071e-05
2.7354547812e-05
2.74395617671e-05
2.75202375492e-05
2.7592223555e-05
2.7654793428e-05
2.77075844277e-05
2.77502655698e-05
2.77827083484e-05
2.78046906974e-05
2.78202275101e-05
9.91207423021e-163
9.91207423021e-163
9.91207423021e-163
9.91207423022e-163
9.91207423022e-163
9.91207423022e-163
9.91207423022e-163
9.91207423023e-163
9.91207423023e-163
9.91207423023e-163
9.91207423023e-163
9.91207423023e-163
9.91207423024e-163
9.91207423024e-163
9.91207423024e-163
9.91207423024e-163
9.91207423024e-163
9.91207423025e-163
9.91207423025e-163
9.91207423025e-163
9.91207423025e-163
9.91207423025e-163
9.91207423025e-163
9.91207423026e-163
9.91207423026e-163
9.91207423027e-163
9.91207423071e-163
9.91207426193e-163
9.91207642222e-163
9.91221609495e-163
9.92141169946e-163
1.01337679463e-162
6.28391202517e-40
7.25265451505e-10
3.54293684648e-07
1.10118361404e-05
1.83947676543e-05
2.1897172518e-05
2.33051209568e-05
2.38978640398e-05
2.41563364797e-05
2.43335875523e-05
2.45005426477e-05
2.46637386741e-05
2.48225718695e-05
2.49825032301e-05
2.51377340178e-05
2.52948067908e-05
2.54499561818e-05
2.5599914648e-05
2.57511399218e-05
2.58995509477e-05
2.60417227281e-05
2.61835063536e-05
2.63210253348e-05
2.64500443351e-05
2.65776763377e-05
2.6698843191e-05
2.68138319249e-05
2.69177806246e-05
2.70184219147e-05
2.71102502113e-05
2.71937464266e-05
2.72641476831e-05
2.73290198814e-05
2.73836587862e-05
2.74278200402e-05
2.74614086332e-05
2.7484281728e-05
2.75000965577e-05
9.91207423017e-163
9.91207423018e-163
9.91207423018e-163
9.91207423018e-163
9.91207423018e-163
9.91207423018e-163
9.91207423019e-163
9.91207423019e-163
9.91207423019e-163
9.91207423019e-163
9.91207423019e-163
9.9120742302e-163
9.9120742302e-163
9.9120742302e-163
9.9120742302e-163
9.9120742302e-163
9.9120742302e-163
9.91207423021e-163
9.91207423021e-163
9.91207423021e-163
9.91207423021e-163
9.91207423021e-163
9.91207423021e-163
9.91207423022e-163
9.91207423022e-163
9.91207423023e-163
9.91207423087e-163
9.91207427502e-163
9.91207728685e-163
9.9122700998e-163
9.92503936217e-163
1.01985508258e-162
2.2507336303e-39
1.59213938908e-09
8.32803993493e-07
1.13978357081e-05
1.82875108614e-05
2.15434613389e-05
2.28614062679e-05
2.33964171799e-05
2.36493417102e-05
2.3838316666e-05
2.40172882691e-05
2.41897158769e-05
2.43627792101e-05
2.45305682169e-05
2.46989595797e-05
2.48649798544e-05
2.50258954292e-05
2.51874128927e-05
2.53428887504e-05
2.54987824781e-05
2.56511260415e-05
2.57961037298e-05
2.59401230758e-05
2.60786721077e-05
2.62075906517e-05
2.63337922421e-05
2.6452848834e-05
2.65644275054e-05
2.66645624758e-05
2.67599072304e-05
2.68458354841e-05
2.69223430147e-05
2.69850218585e-05
2.70416557003e-05
2.70873900297e-05
2.71222228872e-05
2.71460034725e-05
2.71620605938e-05
9.91207423014e-163
9.91207423014e-163
9.91207423014e-163
9.91207423015e-163
9.91207423015e-163
9.91207423015e-163
9.91207423015e-163
9.91207423015e-163
9.91207423016e-163
9.91207423016e-163
9.91207423016e-163
9.91207423016e-163
9.91207423016e-163
9.91207423017e-163
9.91207423017e-163
9.91207423017e-163
9.91207423017e-163
9.91207423017e-163
9.91207423017e-163
9.91207423018e-163
9.91207423018e-163
9.91207423018e-163
9.91207423018e-163
9.91207423018e-163
9.91207423018e-163
9.9120742302e-163
9.91207423113e-163
9.91207429488e-163
9.91207861717e-163
9.91235553926e-163
9.93061366165e-163
1.0287978186e-162
1.20008060842e-29
2.60751151458e-09
1.53198289645e-06
1.17894927889e-05
1.81901124158e-05
2.11567943527e-05
2.23784535751e-05
2.28741947479e-05
2.31252652658e-05
2.33242143629e-05
2.3511659518e-05
2.36985484634e-05
2.38798192586e-05
2.40614964271e-05
2.42406743278e-05
2.44136335646e-05
2.45870700576e-05
2.47539975131e-05
2.49210566998e-05
2.50806796524e-05
2.52398314361e-05
2.53949897563e-05
2.55411113886e-05
2.56855304112e-05
2.5823473168e-05
2.59507399312e-05
2.60741445231e-05
2.61900326351e-05
2.62975402198e-05
2.63921949636e-05
2.64812421713e-05
2.65601987177e-05
2.6628721548e-05
2.66825400147e-05
2.67298169972e-05
2.67659203904e-05
2.67908003569e-05
2.68072508128e-05
9.91207423011e-163
9.91207423011e-163
9.91207423011e-163
9.91207423012e-163
9.91207423012e-163
9.91207423012e-163
9.91207423012e-163
9.91207423012e-163
9.91207423013e-163
9.91207423013e-163
9.91207423013e-163
9.91207423013e-163
9.91207423013e-163
9.91207423013e-163
9.91207423014e-163
9.91207423014e-163
9.91207423014e-163
9.91207423014e-163
9.91207423014e-163
9.91207423014e-163
9.91207423015e-163
9.91207423015e-163
9.91207423015e-163
9.91207423015e-163
9.91207423015e-163
9.91207423017e-163
9.91207423159e-163
9.9120743276e-163
9.91208083849e-163
9.91249563532e-163
9.93968450477e-163
1.0417452031e-162
1.98431795266e-20
3.88909642877e-09
2.32069357174e-06
1.2177685326e-05
1.81123663413e-05
2.07494835646e-05
2.18528107609e-05
2.23276285508e-05
2.25798661143e-05
2.27906983608e-05
2.29912648996e-05
2.31905964018e-05
2.33837373068e-05
2.35760657843e-05
2.37624089863e-05
2.39476922098e-05
2.4126986823e-05
2.43061932089e-05
2.44779445371e-05
2.46490860184e-05
2.48123909198e-05
2.49742022212e-05
2.51298846782e-05
2.52761576247e-05
2.54191482794e-05
2.55548359292e-05
2.56787017123e-05
2.57986052284e-05
2.59094165483e-05
2.60071432367e-05
2.60989913916e-05
2.61805186788e-05
2.62512981991e-05
2.63110289352e-05
2.63558325231e-05
2.63933534972e-05
2.64192761684e-05
2.64360721843e-05
9.91207423008e-163
9.91207423009e-163
9.91207423009e-163
9.91207423009e-163
9.91207423009e-163
9.91207423009e-163
9.91207423009e-163
9.9120742301e-163
9.9120742301e-163
9.9120742301e-163
9.9120742301e-163
9.9120742301e-163
9.91207423011e-163
9.91207423011e-163
9.91207423011e-163
9.91207423011e-163
9.91207423011e-163
9.91207423011e-163
9.91207423011e-163
9.91207423012e-163
9.91207423012e-163
9.91207423012e-163
9.91207423012e-163
9.91207423012e-163
9.91207423012e-163
9.91207423016e-163
9.91207423238e-163
9.9120743827e-163
9.91208451985e-163
9.91272516226e-163
9.95398796711e-163
1.06015977796e-162
1.7770697324e-16
5.48234745426e-09
3.16135468147e-06
1.25211099112e-05
1.7937648818e-05
2.03058384871e-05
2.13238500487e-05
2.17625530067e-05
2.20183639024e-05
2.22386470123e-05
2.24548220921e-05
2.2663553488e-05
2.28712083785e-05
2.30718470899e-05
2.32683626758e-05
2.3464032507e-05
2.36519002305e-05
2.38395855028e-05
2.4022878633e-05
2.41982898534e-05
2.4371869416e-05
2.45363291847e-05
2.46987824949e-05
2.48505188968e-05
2.49990287225e-05
2.51395782388e-05
2.52677176082e-05
2.53911907033e-05
2.55053072602e-05
2.5609921597e-05
2.5700758756e-05
2.5784707169e-05
2.5857492565e-05
2.59190458774e-05
2.59692391318e-05
2.60036591733e-05
2.60304330689e-05
2.60474809589e-05
9.91207423006e-163
9.91207423006e-163
9.91207423006e-163
9.91207423006e-163
9.91207423007e-163
9.91207423007e-163
9.91207423007e-163
9.91207423007e-163
9.91207423007e-163
9.91207423007e-163
9.91207423008e-163
9.91207423008e-163
9.91207423008e-163
9.91207423008e-163
9.91207423008e-163
9.91207423008e-163
9.91207423009e-163
9.91207423009e-163
9.91207423009e-163
9.91207423009e-163
9.91207423009e-163
9.91207423009e-163
9.91207423009e-163
9.9120742301e-163
9.9120742301e-163
9.91207423015e-163
9.91207423378e-163
9.9120744778e-163
9.91209076892e-163
9.91310302524e-163
9.97598537766e-163
4.67157070955e-65
1.44897693602e-14
7.73818512702e-09
4.0864590838e-06
1.29159396383e-05
1.77140615246e-05
1.98655027722e-05
2.07577221445e-05
2.11798392949e-05
2.14415328771e-05
2.16764047589e-05
2.19018441457e-05
2.21250428508e-05
2.23407852814e-05
2.25518580494e-05
2.27618365322e-05