/*--------------------------------*- C++ -*----------------------------------*\
| =========                 |                                                 |
| \\      /  F ield         | foam-extend: Open Source CFD                    |
|  \\    /   O peration     | Version:     4.1                                |
|   \\  /    A nd           | Web:         http://www.foam-extend.org         |
|    \\/     M anipulation  |                                                 |
\*---------------------------------------------------------------------------*/
FoamFile
{
    version     2.0;
    format      ascii;
    class       volScalarField;
    location    "0.0002";
    object      Mach;
}
// * * * * * * * * * * * * * * * * * * * * * * * * * * * * * * * * * * * * * //

dimensions      [0 0 0 0 0 0 0];

internalField   nonuniform List<scalar> 
8400
(
56.1971337879
56.1971337879
56.197133788
56.197133788
56.197133788
56.1971337881
56.1971337881
56.1971337881
56.1971337882
56.1971337882
56.1971337882
56.1971337883
56.1971337883
56.1971337883
56.1971337884
56.1971337884
56.1971337884
56.1971337885
56.1971337885
56.1971337885
56.1971337885
56.1971337886
56.1971337886
56.1971337886
56.1971337886
56.1971337887
56.1971337887
56.1971337887
56.1971337887
56.1971337883
56.1971337548
56.197131441
56.1969785129
56.1884907717
44.0196691459
15.3153380239
6.77003436746
3.03402797504
1.54787340577
0.771302587637
0.392279430616
0.237506396385
0.190173159055
0.177747074696
0.172945528831
0.169448244163
0.166120181946
0.162787712952
0.159464211361
0.15612637401
0.15276813865
0.149449354899
0.146305163856
0.143364387756
0.140626498814
0.138058186962
0.135674648482
0.133556862348
0.131719432726
0.130172790728
0.128886071813
0.127841464927
0.127057700277
0.12650325115
0.12613847151
0.125924836427
0.1258188686
0.125779666592
0.125774710454
0.125875600342
56.1971337914
56.1971337914
56.1971337914
56.1971337915
56.1971337915
56.1971337915
56.1971337915
56.1971337915
56.1971337915
56.1971337915
56.1971337916
56.1971337916
56.1971337916
56.1971337916
56.1971337916
56.1971337916
56.1971337916
56.1971337916
56.1971337917
56.1971337917
56.1971337917
56.1971337917
56.1971337917
56.1971337917
56.1971337917
56.1971337917
56.1971337917
56.1971337917
56.1971337917
56.1971337878
56.1971335233
56.1971158695
56.1959830786
56.1403684318
22.3436212292
9.95549528045
4.30504686157
2.18827836336
1.09195773132
0.532563657078
0.282358014483
0.197392331106
0.176180454107
0.1703707324
0.167512900778
0.165335029621
0.163485097658
0.161922619688
0.16058956441
0.15946124138
0.158551740053
0.157894591093
0.157502416542
0.157345681836
0.157379944682
0.157563104107
0.157873192463
0.158337368845
0.158924758767
0.159599941801
0.160329117514
0.161089061607
0.161864447274
0.162627224139
0.163325536858
0.16395097978
0.164472844359
0.164869950163
0.165129267274
0.165266993379
56.1971337929
56.1971337929
56.1971337929
56.1971337929
56.1971337929
56.1971337929
56.1971337929
56.1971337929
56.1971337929
56.197133793
56.197133793
56.197133793
56.197133793
56.197133793
56.197133793
56.197133793
56.197133793
56.197133793
56.197133793
56.197133793
56.197133793
56.197133793
56.197133793
56.197133793
56.197133793
56.1971337931
56.1971337931
56.1971337931
56.1971337928
56.1971337763
56.1971326306
56.1970538579
56.19210339
49.8851583967
16.9422375891
7.58610337992
3.28918587464
1.66783958654
0.826072879536
0.421081997965
0.266773923804
0.225895908518
0.216652914977
0.213462309649
0.211485807892
0.209973101658
0.20880520895
0.207902389631
0.20724826999
0.206805164187
0.206564800781
0.206529870157
0.20669044631
0.207006803812
0.207443821402
0.207976685126
0.208579844226
0.209275273326
0.210032681642
0.210809048156
0.211572145658
0.212309506885
0.213014931306
0.213685180754
0.214277277002
0.214786329423
0.215190518667
0.215481004905
0.215651904452
0.21571049771
56.1971337936
56.1971337936
56.1971337936
56.1971337936
56.1971337936
56.1971337936
56.1971337936
56.1971337936
56.1971337936
56.1971337936
56.1971337937
56.1971337937
56.1971337937
56.1971337937
56.1971337937
56.1971337937
56.1971337937
56.1971337937
56.1971337937
56.1971337937
56.1971337937
56.1971337937
56.1971337937
56.1971337937
56.1971337937
56.1971337937
56.1971337937
56.1971337937
56.1971337929
56.1971337333
56.1971296884
56.1968658826
56.1827083384
36.600147728
12.3603086662
5.5440865988
2.73414170373
1.3867316065
0.703278965806
0.403636388048
0.308897343172
0.286831988323
0.280874172299
0.277793650755
0.275419033457
0.273370961427
0.271604282413
0.270088689953
0.268791955225
0.26769487557
0.266788918947
0.266065128971
0.26550897626
0.265094743317
0.264801006406
0.26458358424
0.264471645506
0.264452351683
0.264506531497
0.264603800618
0.264721346535
0.26486444565
0.264994164258
0.265130705508
0.265259398325
0.265365219842
0.265436501071
0.265467149701
0.265454948764
0.265405387224
56.197133794
56.197133794
56.197133794
56.197133794
56.197133794
56.197133794
56.197133794
56.197133794
56.197133794
56.197133794
56.197133794
56.197133794
56.1971337941
56.1971337941
56.1971337941
56.1971337941
56.1971337941
56.1971337941
56.1971337941
56.1971337941
56.1971337941
56.1971337941
56.1971337941
56.1971337941
56.1971337941
56.1971337941
56.1971337941
56.1971337941
56.1971337922
56.1971336577
56.1971243683
56.1965077771
56.1643163272
27.4099698361
10.857981789
4.75070653783
2.41335202661
1.2362998314
0.661163449738
0.434721646423
0.372134458513
0.357330318719
0.351950275054
0.348238364267
0.344986749862
0.342024697397
0.339306270901
0.336806609936
0.334513035866
0.332413867777
0.330500913918
0.328759975324
0.327178329577
0.325754086475
0.324434016908
0.323243931645
0.322177266768
0.321229846544
0.320392453946
0.31966399394
0.318991998694
0.318393963643
0.317863680125
0.317396458279
0.316991292055
0.316642633246
0.316344509864
0.316093978041
0.315885902705
0.315724549583
56.1971337943
56.1971337943
56.1971337943
56.1971337943
56.1971337943
56.1971337943
56.1971337943
56.1971337943
56.1971337943
56.1971337943
56.1971337943
56.1971337943
56.1971337943
56.1971337943
56.1971337943
56.1971337943
56.1971337943
56.1971337943
56.1971337943
56.1971337943
56.1971337943
56.1971337943
56.1971337943
56.1971337943
56.1971337943
56.1971337943
56.1971337943
56.1971337943
56.1971337908
56.1971335493
56.1971171223
56.1960441447
56.1424193592
22.5545649611
9.97462568477
4.32121683993
2.21955008332
1.16012491007
0.664895980577
0.488010300172
0.442522872198
0.430549118473
0.424853259595
0.420278897651
0.416074064698
0.412125528649
0.408397240562
0.404870495746
0.401533105547
0.398384248762
0.395416364993
0.392625276531
0.390018028365
0.387536971465
0.385211951238
0.383042909961
0.38102583203
0.379162975734
0.377472338316
0.375897632245
0.374461477691
0.373150730464
0.371968903526
0.370919834109
0.370009484787
0.369233315141
0.368585427659
0.368085628122
0.367683138623
0.367388663355
56.1971337944
56.1971337944
56.1971337944
56.1971337944
56.1971337944
56.1971337944
56.1971337944
56.1971337945
56.1971337945
56.1971337945
56.1971337945
56.1971337945
56.1971337945
56.1971337945
56.1971337945
56.1971337945
56.1971337945
56.1971337945
56.1971337945
56.1971337945
56.1971337945
56.1971337945
56.1971337945
56.1971337945
56.1971337945
56.1971337945
56.1971337945
56.1971337944
56.1971337892
56.1971334264
56.1971091131
56.1955475803
56.1205599641
20.1304636635
9.36593826706
4.04536199284
2.10100676565
1.12844189448
0.695157595588
0.55202765606
0.515701606898
0.504708505271
0.498341914946
0.492832563637
0.487645762849
0.482695304
0.477954655775
0.473405906335
0.469044095429
0.464873068867
0.460908131508
0.457098212838
0.453468573431
0.450016056979
0.446745863916
0.44365794441
0.440757192153
0.43806734532
0.435533352696
0.433189428809
0.431029215285
0.429059202101
0.427281634598
0.42570149126
0.424351619661
0.423171703852
0.422194431096
0.421416193617
0.420838643821
0.42047111597
56.1971337946
56.1971337946
56.1971337946
56.1971337946
56.1971337946
56.1971337946
56.1971337946
56.1971337946
56.1971337946
56.1971337946
56.1971337946
56.1971337946
56.1971337946
56.1971337946
56.1971337946
56.1971337946
56.1971337946
56.1971337946
56.1971337946
56.1971337946
56.1971337946
56.1971337946
56.1971337946
56.1971337946
56.1971337946
56.1971337946
56.1971337946
56.1971337945
56.1971337874
56.1971333003
56.1971011727
56.1950754867
56.1015982897
19.1032934109
8.91364196112
3.85667074694
2.02843466443
1.1254799126
0.741339482998
0.62130251335
0.590244807297
0.579374933946
0.572170849926
0.565680642971
0.559495303729
0.553538021892
0.547792945672
0.5422420277
0.536884944029
0.531753543336
0.526780800795
0.522009990526
0.517431717023
0.513056270268
0.508889400236
0.504969595283
0.501234270633
0.497725854046
0.494441001449
0.491379514255
0.488555789601
0.485972621894
0.483670977569
0.481595797909
0.479786059228
0.478240589661
0.476961330662
0.47594896509
0.475205757137
0.474743893144
56.1971337947
56.1971337947
56.1971337947
56.1971337947
56.1971337947
56.1971337947
56.1971337947
56.1971337947
56.1971337947
56.1971337947
56.1971337947
56.1971337947
56.1971337947
56.1971337947
56.1971337947
56.1971337947
56.1971337947
56.1971337947
56.1971337947
56.1971337947
56.1971337947
56.1971337947
56.1971337947
56.1971337947
56.1971337947
56.1971337947
56.1971337947
56.1971337946
56.1971337855
56.1971331776
56.1970936932
56.1946494775
55.4264532484
18.5293055242
8.54523153581
3.72629255232
1.98648648537
1.14136140209
0.797486650743
0.693627367597
0.665627251231
0.654476068241
0.646383292409
0.63889655803
0.631690605117
0.624716571577
0.617959856535
0.611416306543
0.605114921329
0.598986880783
0.593071042145
0.587370768582
0.581881809545
0.576621296034
0.571630600949
0.566853355137
0.56233644017
0.558079510859
0.554082226178
0.550354754373
0.546943090053
0.543784829859
0.540935896044
0.538403151462
0.536192164142
0.534304387239
0.532744626713
0.531516379221
0.530620860354
0.530076071869
56.1971337947
56.1971337947
56.1971337947
56.1971337947
56.1971337947
56.1971337947
56.1971337947
56.1971337947
56.1971337947
56.1971337947
56.1971337947
56.1971337947
56.1971337948
56.1971337948
56.1971337948
56.1971337948
56.1971337948
56.1971337948
56.1971337948
56.1971337948
56.1971337948
56.1971337948
56.1971337948
56.1971337948
56.1971337948
56.1971337948
56.1971337948
56.1971337946
56.1971337837
56.197133057
56.1970864484
56.1940661685
53.8438086362
18.0235650641
8.25979370333
3.62330318697
1.96181429606
1.17093053595
0.860409461953
0.768046921112
0.741871102813
0.730186491462
0.721085333154
0.712553998643
0.704307563969
0.696307684327
0.688542370764
0.681043845527
0.673732918265
0.666662106101
0.659819219554
0.653209976819
0.646833144664
0.640748240143
0.63489787298
0.629338043616
0.624070736282
0.619091931153
0.614445147704
0.610072538727
0.606031558954
0.602341606122
0.599010032589
0.596041685674
0.593444458835
0.591270567343
0.589440388519
0.588004692524
0.586962508886
0.586338678496
56.1971337948
56.1971337948
56.1971337948
56.1971337948
56.1971337948
56.1971337948
56.1971337948
56.1971337948
56.1971337948
56.1971337948
56.1971337948
56.1971337948
56.1971337948
56.1971337948
56.1971337948
56.1971337948
56.1971337948
56.1971337948
56.1971337948
56.1971337948
56.1971337948
56.1971337948
56.1971337948
56.1971337948
56.1971337948
56.1971337948
56.1971337948
56.1971337946
56.1971337818
56.1971329265
56.1970768093
56.1933234189
52.2454089644
17.5627383738
8.01116086948
3.5475854714
1.95225952523
1.20924057617
0.927717542303
0.844195878034
0.81886582022
0.806447375087
0.796309231659
0.786714941634
0.777420799357
0.768393899662
0.759664870784
0.751140677379
0.742868108771
0.734848921235
0.727082393475
0.719608402156
0.71235793584
0.705392716525
0.69874096022
0.692413360919
0.686453743449
0.680770228042
0.675425594937
0.670436045453
0.665827134498
0.66161954051
0.657861305161
0.654473951594
0.651508850159
0.648978804861
0.646893757096
0.645258859913
0.644073801419
0.643375051501
56.1971337948
56.1971337948
56.1971337948
56.1971337948
56.1971337948
56.1971337948
56.1971337948
56.1971337948
56.1971337949
56.1971337949
56.1971337949
56.1971337949
56.1971337949
56.1971337949
56.1971337949
56.1971337949
56.1971337949
56.1971337949
56.1971337949
56.1971337949
56.1971337949
56.1971337949
56.1971337949
56.1971337949
56.1971337949
56.1971337949
56.1971337949
56.1971337946
56.1971337794
56.1971327467
56.197062355
56.1924552877
50.519773875
17.1173198279
7.7792786427
3.48194528823
1.95310950886
1.25512183934
0.99791052962
0.921320295754
0.896695716437
0.883410094766
0.872188757746
0.861509501858
0.851141748213
0.841066875605
0.831318654515
0.82179414826
0.812555022112
0.803589551152
0.794948513045
0.786538261972
0.778427049648
0.770630629619
0.763177696153
0.756131150154
0.749404608156
0.743045887581
0.737060307652
0.731520054603
0.726354632269
0.721637484143
0.717381181788
0.713594075665
0.71027622226
0.707442226662
0.705101452896
0.703313962894
0.701984060097
0.701210773674
56.1971337949
56.1971337949
56.1971337949
56.1971337949
56.1971337949
56.1971337949
56.1971337949
56.1971337949
56.1971337949
56.1971337949
56.1971337949
56.1971337949
56.1971337949
56.1971337949
56.1971337949
56.1971337949
56.1971337949
56.1971337949
56.1971337949
56.1971337949
56.1971337949
56.1971337949
56.1971337949
56.1971337949
56.1971337949
56.1971337949
56.1971337949
56.1971337946
56.1971337762
56.1971324926
56.1970436564
56.1914986928
48.7474516339
16.6413829542
7.54725919899
3.41843438675
1.95929243282
1.30625915826
1.07055381812
0.999685636301
0.97532557811
0.961109761317
0.948780934677
0.936972410557
0.925512991902
0.914416008488
0.903575112385
0.893052837472
0.882830381646
0.872964269851
0.863354048239
0.854066542078
0.845100270663
0.836532817581
0.828287648281
0.820436120548
0.8129920071
0.806005707352
0.799383768201
0.793212471163
0.787511188816
0.782303168964
0.777598175304
0.773455322437
0.769787934983
0.766661347923
0.764080709804
0.76205693638
0.760590422471
0.759739419119
56.1971337949
56.1971337949
56.1971337949
56.1971337949
56.1971337949
56.1971337949
56.1971337949
56.1971337949
56.1971337949
56.1971337949
56.1971337949
56.1971337949
56.1971337949
56.1971337949
56.1971337949
56.1971337949
56.1971337949
56.1971337949
56.1971337949
56.1971337949
56.1971337949
56.1971337949
56.1971337949
56.1971337949
56.1971337949
56.1971337949
56.1971337949
56.1971337946
56.1971337715
56.1971321336
56.1970195695
56.1902806461
46.7056827629
16.1142757362
7.28499523313
3.36468877571
1.97321509686
1.36094946101
1.14499420987
1.07905212334
1.05474252751
1.03957887443
1.02610002938
1.01314652258
1.00061520823
0.988386083202
0.976500531843
0.964952199211
0.953793901963
0.942914873015
0.932388599756
0.92221022858
0.912447819576
0.903012710736
0.89398563745
0.885387493185
0.877281545814
0.869573520154
0.862335147092
0.855588078584
0.849407212202
0.843707497749
0.838557602256
0.833969831211
0.82995897168
0.826538920772
0.823720683573
0.821565137894
0.819955075468
0.819025538031
56.1971337949
56.1971337949
56.1971337949
56.1971337949
56.197133795
56.197133795
56.197133795
56.197133795
56.197133795
56.197133795
56.197133795
56.197133795
56.197133795
56.197133795
56.197133795
56.197133795
56.197133795
56.197133795
56.197133795
56.197133795
56.197133795
56.197133795
56.197133795
56.197133795
56.197133795
56.197133795
56.197133795
56.1971337945
56.1971337645
56.1971316325
56.1969875071
56.1888359266
44.5627376756
15.4625315066
7.02271174606
3.3067808031
1.98707591808
1.41949855021
1.22149432075
1.15947587609
1.13504970629
1.11883476688
1.10417554274
1.09010793754
1.07639023052
1.06306271954
1.0501134017
1.03759140257
1.0253793591
1.01353996995
1.00213584499
0.991060531198
0.980388695183
0.970134051394
0.960383604765
0.951043447543
0.942177502708
0.933812312896
0.926016835167
0.918692915775
0.91193539306
0.905757204942
0.900233191205
0.895253386875
0.890897668362
0.887188319309
0.884129748447
0.881724800348
0.879975765783
0.878979904305
56.197133795
56.197133795
56.197133795
56.197133795
56.197133795
56.197133795
56.197133795
56.197133795
56.197133795
56.197133795
56.197133795
56.197133795
56.197133795
56.197133795
56.197133795
56.197133795
56.197133795
56.197133795
56.197133795
56.197133795
56.197133795
56.197133795
56.197133795
56.197133795
56.197133795
56.197133795
56.197133795
56.1971337944
56.1971337548
56.1971309827
56.1969462304
56.1868576354
41.7241852861
14.5709059803
6.7083969163
3.25140892379
2.00695820215
1.48007526681
1.29902295772
1.24076344053
1.21624234616
1.19893187766
1.18304837513
1.16778439457
1.15289647599
1.13844337363
1.12447462606
1.11085528963
1.09763863978
1.08488806207
1.07249505853
1.06052199263
1.04905407566
1.03798185917
1.02739144517
1.01730250298
1.00779937316
0.99877282053
0.990311549446
0.98242180304
0.975204405376
0.968553563852
0.962543395054
0.957185476093
0.952492920446
0.948552974758
0.945250700262
0.942656253382
0.940769627602
0.939710235894
56.197133795
56.197133795
56.197133795
56.197133795
56.197133795
56.197133795
56.197133795
56.197133795
56.197133795
56.197133795
56.197133795
56.197133795
56.197133795
56.197133795
56.197133795
56.197133795
56.197133795
56.197133795
56.197133795
56.197133795
56.197133795
56.197133795
56.197133795
56.197133795
56.197133795
56.197133795
56.197133795
56.1971337943
56.197133741
56.1971300783
56.1968902419
56.1841847444
38.3544522279
13.0623141322
6.327701682
3.1953430993
2.02484738897
1.54381190533
1.37844337094
1.3234538778
1.29834083698
1.27987259345
1.26279186824
1.24624122094
1.23017302394
1.21463838668
1.19949904972
1.18480646288
1.17063392371
1.15684180557
1.14351491541
1.13071089656
1.11832703465
1.10643540587
1.0951358184
1.08430768839
1.07404542608
1.06442771114
1.0553546893
1.04691435541
1.03911773559
1.03205838325
1.02561723902
1.01987673477
1.01486015851
1.01057553784
1.00703885135
1.00425608309
1.00222646436
1.00109949335
56.197133795
56.197133795
56.197133795
56.197133795
56.197133795
56.197133795
56.197133795
56.197133795
56.197133795
56.197133795
56.197133795
56.197133795
56.197133795
56.197133795
56.197133795
56.197133795
56.197133795
56.197133795
56.197133795
56.197133795
56.197133795
56.197133795
56.197133795
56.197133795
56.197133795
56.197133795
56.197133795
56.197133794
56.1971337205
56.1971287872
56.1968102953
56.180456116
34.664237056
12.2034644023
5.81956551587
3.13642587452
2.04899032088
1.60978769366
1.45885848752
1.40679776676
1.38123783546
1.36164027732
1.34323725665
1.32544440469
1.30823973375
1.29148542384
1.27522735958
1.25953852536
1.24427092172
1.22956167903
1.21528048174
1.20151010367
1.18832985672
1.17562302405
1.16347820319
1.15199128677
1.14103656095
1.13071829675
1.12104479389
1.11212217706
1.10380905797
1.0962162362
1.08935222896
1.08331092253
1.07796679988
1.07340640144
1.06963544613
1.06666543591
1.06448976272
1.06328869465
56.197133795
56.197133795
56.197133795
56.197133795
56.197133795
56.197133795
56.197133795
56.197133795
56.197133795
56.197133795
56.197133795
56.197133795
56.197133795
56.197133795
56.197133795
56.1971337951
56.1971337951
56.1971337951
56.1971337951
56.1971337951
56.1971337951
56.1971337951
56.1971337951
56.1971337951
56.1971337951
56.1971337951
56.197133795
56.1971337935
56.1971336913
56.1971269021
56.1966894075
56.1742680799
31.4136554575
11.6478633558
5.44454133155
3.08105270738
2.07631350058
1.67694142253
1.54009108606
1.49100514684
1.46517548991
1.44426290718
1.4245298154
1.40550703436
1.38699689125
1.36911620438
1.35173078369
1.33488433151
1.31865214021
1.30288142296
1.2877331908
1.27306618061
1.25895729293
1.24550569015
1.23257898409
1.22028584137
1.20872304762
1.19776027267
1.18750567937
1.17795496675
1.16921517288
1.16116039989
1.15388998468
1.14741767876
1.14183456059
1.13698953739
1.13298617474
1.12982335922
1.12749954597
1.12623316915
56.1971337951
56.1971337951
56.1971337951
56.1971337951
56.1971337951
56.1971337951
56.1971337951
56.1971337951
56.1971337951
56.1971337951
56.1971337951
56.1971337951
56.1971337951
56.1971337951
56.1971337951
56.1971337951
56.1971337951
56.1971337951
56.1971337951
56.1971337951
56.1971337951
56.1971337951
56.1971337951
56.1971337951
56.1971337951
56.1971337951
56.197133795
56.1971337929
56.1971336472
56.1971239748
56.1964992467
56.1653407455
27.646416031
11.0583712893
5.16989386703
3.02576827083
2.10614507085
1.74683886704
1.62297023534
1.57628435445
1.54980955625
1.52767174103
1.50667550686
1.48627449216
1.46650631866
1.44742910342
1.42887555314
1.41099981188
1.39364217939
1.37694738622
1.36077556827
1.34528850208
1.33032687954
1.31598812963
1.3023804613
1.28935357547
1.27703873696
1.26552242321
1.25468328809
1.24459189615
1.23527919202
1.22684970975
1.21916925149
1.21233099314
1.20635388886
1.20124566042
1.19709308185
1.19373662923
1.19126586312
1.18992704803
56.1971337951
56.1971337951
56.1971337951
56.1971337951
56.1971337951
56.1971337951
56.1971337951
56.1971337951
56.1971337951
56.1971337951
56.1971337951
56.1971337951
56.1971337951
56.1971337951
56.1971337951
56.1971337951
56.1971337951
56.1971337951
56.1971337951
56.1971337951
56.1971337951
56.1971337951
56.1971337951
56.1971337951
56.1971337951
56.1971337951
56.197133795
56.1971337918
56.1971335737
56.197119132
56.1961928861
56.1513111807
24.0162942705
10.4818547246
4.92773247454
2.97318234133
2.13707570932
1.81920397417
1.70711559558
1.6624652889
1.63539847813
1.61187141686
1.58947406105
1.56773442809
1.54676927724
1.52640119007
1.50677572581
1.48773126611
1.46940176655
1.45162806692
1.4345820288
1.41810046595
1.40235336356
1.38720727562
1.37276350543
1.35912044675
1.34613429604
1.33391954697
1.32258453244
1.31196810168
1.30217520761
1.29331175173
1.28522549756
1.27803173148
1.27174135119
1.26636046096
1.26198276474
1.25843039893
1.25579669876
1.25438784784
56.1971337951
56.1971337951
56.1971337951
56.1971337951
56.1971337951
56.1971337951
56.1971337951
56.1971337951
56.1971337951
56.1971337951
56.1971337951
56.1971337951
56.1971337951
56.1971337951
56.1971337951
56.1971337951
56.1971337951
56.1971337951
56.1971337951
56.1971337951
56.1971337951
56.1971337951
56.1971337951
56.1971337951
56.1971337951
56.1971337951
56.197133795
56.19713379
56.197133452
56.1971112391
56.1957017814
56.1306590219
21.0244629273
9.896630884
4.6872664745
2.92382669175
2.17537976724
1.89318462988
1.79238078135
1.74969953795
1.72172329155
1.69688735302
1.67299137568
1.64998572984
1.62763875542
1.60612678452
1.5853322408
1.56517124112
1.54580554835
1.52703422871
1.5089580181
1.49166773106
1.47499150826
1.4591412421
1.44393579501
1.42959314979
1.41594478807
1.40311663669
1.39121707525
1.38007947285
1.36982341131
1.36044206516
1.35205776043
1.34451087627
1.33791142067
1.33226501188
1.32756712769
1.3239221273
1.32113725097
1.31966934549
56.1971337951
56.1971337951
56.1971337951
56.1971337951
56.1971337951
56.1971337951
56.1971337951
56.1971337951
56.1971337951
56.1971337951
56.1971337951
56.1971337951
56.1971337951
56.1971337951
56.1971337951
56.1971337951
56.1971337951
56.1971337951
56.1971337951
56.1971337951
56.1971337951
56.1971337951
56.1971337951
56.1971337951
56.1971337951
56.1971337951
56.197133795
56.1971337869
56.1971332452
56.1970981622
56.1949274558
56.1015958528
19.192337715
9.27853357439
4.46377458475
2.87930424152
2.21656434045
1.9698710155
1.87925656343
1.83774872365
1.80883736612
1.78249213538
1.75728294418
1.73283805641
1.70928670733
1.68654758844
1.66449566773
1.64329912393
1.62276884447
1.60309556141
1.58406441577
1.56588779926
1.54837787888
1.53174609705
1.5158144
1.50068720313
1.48649881389
1.47306860682
1.46051677853
1.4489734346
1.43823593418
1.42843683491
1.41967706282
1.41178425076
1.40488074018
1.39897018399
1.39404542189
1.39020690838
1.38726910526
1.38574141077
56.1971337951
56.1971337951
56.1971337951
56.1971337951
56.1971337951
56.1971337951
56.1971337951
56.1971337951
56.1971337951
56.1971337951
56.1971337951
56.1971337951
56.1971337951
56.1971337951
56.1971337951
56.1971337951
56.1971337951
56.1971337951
56.1971337951
56.1971337951
56.1971337951
56.1971337951
56.1971337951
56.1971337951
56.1971337951
56.1971337951
56.1971337949
56.1971337814
56.1971328975
56.1970774129
56.1935270331
53.2058150486
18.0028206867
8.65840578962
4.24879185865
2.84344727256
2.26193040244
2.0487614828
1.96685166609
1.9268546547
1.89673843709
1.86895122195
1.84216655909
1.81641004349
1.7915364558
1.76747205179
1.74434227312
1.72194976989
1.70047684983
1.67980602391
1.65985877509
1.64080086592
1.62245853083
1.60493865477
1.58836952309
1.57256731912
1.55775931337
1.5437516398
1.53066591819
1.51862947174
1.50744800461
1.49723350878
1.48811871498
1.47989349245
1.47269610018
1.46651737469
1.46135829129
1.45733677877
1.45423115429
1.45263779592
56.1971337951
56.1971337951
56.1971337951
56.1971337951
56.1971337951
56.1971337951
56.1971337951
56.1971337951
56.1971337951
56.1971337951
56.1971337951
56.1971337951
56.1971337951
56.1971337951
56.1971337951
56.1971337951
56.1971337951
56.1971337951
56.1971337951
56.1971337951
56.1971337951
56.1971337951
56.1971337951
56.1971337951
56.1971337951
56.1971337951
56.1971337948
56.1971337715
56.1971322126
56.1970276773
56.1907047503
47.6867459482
16.6483258734
7.99314486415
4.0471720747
2.81687966653
2.31499589932
2.12943288649
2.05565798101
2.01652292086
1.98525405487
1.95597546987
1.92777177774
1.90060904081
1.87431197148
1.84906896349
1.82476159973
1.80126785531
1.77876735529
1.7570193275
1.73626093755
1.71625029795
1.69720461167
1.67893348297
1.66166198829
1.64519668557
1.62977169854
1.61518909294
1.60156912287
1.58905680553
1.57742836156
1.56683318612
1.55736667997
1.54882305581
1.54133346546
1.5348940173
1.52963149737
1.52530597677
1.52203302077
1.52036400901
56.1971337951
56.1971337951
56.1971337951
56.1971337951
56.1971337951
56.1971337951
56.1971337951
56.1971337951
56.1971337951
56.1971337951
56.1971337951
56.1971337951
56.1971337951
56.1971337951
56.1971337951
56.1971337951
56.1971337951
56.1971337951
56.1971337951
56.1971337951
56.1971337951
56.1971337951
56.1971337951
56.1971337951
56.1971337951
56.1971337951
56.1971337945
56.197133747
56.1971304957
56.1969186924
56.1859920737
40.943954863
14.7752113374
7.31276746167
3.86765455802
2.80004456284
2.37192511804
2.21274662366
2.14585823165
2.10701238403
2.07448714317
2.04363370306
2.01395636685
1.98528491528
1.95776597514
1.93128914883
1.90570387992
1.88119839841
1.85763759351
1.83490644003
1.81324716296
1.79239354486
1.77257195708
1.75357619428
1.73562538473
1.71852815921
1.70252458242
1.68740243845
1.67340135326
1.66030689298
1.64826448733
1.63739999509
1.62747168465
1.61861482611
1.61083831719
1.60426788036
1.5986538096
1.59412937742
1.59068597872
1.58893785995
56.1971337951
56.1971337951
56.1971337951
56.1971337951
56.1971337951
56.1971337951
56.1971337951
56.1971337951
56.1971337951
56.1971337951
56.1971337951
56.1971337951
56.1971337951
56.1971337951
56.1971337951
56.1971337951
56.1971337951
56.1971337951
56.1971337951
56.1971337951
56.1971337952
56.1971337952
56.1971337952
56.1971337952
56.1971337952
56.1971337951
56.1971337937
56.1971336931
56.1971271344
56.1967192963
56.1773749452
33.1217286124
12.1416232011
6.50379709251
3.70593682207
2.79670881889
2.43475980163
2.29857090795
2.23724742628
2.1982580009
2.16421744434
2.13166947592
2.10049431097
2.07052250441
2.04171013335
2.01400259015
1.9872661568
1.96168126814
1.93712144181
1.91344037202
1.89087898633
1.86917046421
1.84859306249
1.82886700431
1.81026724873
1.79255796969
1.77600127625
1.76035104317
1.7458759726
1.7323563289
1.71991322736
1.70869118162
1.69842855733
1.68927675864
1.68135848705
1.6744184598
1.66858699492
1.66386175455
1.66022347849
1.65840605652
56.1971337951
56.1971337951
56.1971337951
56.1971337951
56.1971337951
56.1971337951
56.1971337951
56.1971337951
56.1971337951
56.1971337952
56.1971337952
56.1971337952
56.1971337952
56.1971337952
56.1971337952
56.1971337952
56.1971337952
56.1971337952
56.1971337952
56.1971337952
56.1971337952
56.1971337952
56.1971337952
56.1971337952
56.1971337952
56.1971337951
56.1971337919
56.1971335824
56.1971202187
56.1962909736
56.1582859823
25.8057875223
10.9885781332
5.524441293
3.56791610597
2.80328212467
2.50289462033
2.38598599571
2.32963240194
2.29010695857
2.25443758707
2.22036256385
2.18765483994
2.1562533383
2.12611138077
2.09715991918
2.06927467545
2.0426311825
2.01707992159
1.99248785213
1.96907822207
1.94659145808
1.92526609363
1.90498542747
1.88563183383
1.86745998739
1.85022131409
1.8340710974
1.81914364037
1.8052060439
1.79252483418
1.78082258052
1.77025866261
1.76096044272
1.7526499168
1.74546316367
1.73940198263
1.7344641056
1.73076382317
1.72885219149
56.1971337952
56.1971337952
56.1971337952
56.1971337952
56.1971337952
56.1971337952
56.1971337952
56.1971337952
56.1971337952
56.1971337952
56.1971337952
56.1971337952
56.1971337952
56.1971337952
56.1971337952
56.1971337952
56.1971337952
56.1971337952
56.1971337952
56.1971337952
56.1971337952
56.1971337952
56.1971337952
56.1971337952
56.1971337952
56.1971337951
56.197133788
56.1971333302
56.1971043413
56.1953378439
56.120605637
20.1564821316
9.89810336438
5.0374089794
3.45803454269
2.82161911584
2.57711942938
2.4754421927
2.42250731381
2.38227058947
2.34501647802
2.30938003777
2.27518584558
2.24241670033
2.21096131866
2.18079354312
2.15176365675
2.12403764583
2.0975130367
2.07203223723
2.04780773617
2.02469543307
2.00254669879
1.98162656747
1.96167577233
1.94295854179
1.92521753974
1.90875776964
1.89328123106
1.87908543816
1.86589049815
1.85386526424
1.84314384444
1.83340355175
1.82481643466
1.81738249964
1.8112492607
1.80608508993
1.80204154368
1.80006624855
56.1971337952
56.1971337952
56.1971337952
56.1971337952
56.1971337952
56.1971337952
56.1971337952
56.1971337952
56.1971337952
56.1971337952
56.1971337952
56.1971337952
56.1971337952
56.1971337952
56.1971337952
56.1971337952
56.1971337952
56.1971337952
56.1971337952
56.1971337952
56.1971337952
56.1971337952
56.1971337952
56.1971337952
56.1971337952
56.1971337949
56.1971337787
56.1971327418
56.1970693217
56.1930921886
52.3986666284
17.9060557639
8.88258537096
4.65395080749
3.37079069472
2.85416112152
2.65474021668
2.56663958371