/*--------------------------------*- C++ -*----------------------------------*\
| =========                 |                                                 |
| \\      /  F ield         | foam-extend: Open Source CFD                    |
|  \\    /   O peration     | Version:     4.1                                |
|   \\  /    A nd           | Web:         http://www.foam-extend.org         |
|    \\/     M anipulation  |                                                 |
\*---------------------------------------------------------------------------*/
FoamFile
{
    version     2.0;
    format      ascii;
    class       volScalarField;
    location    "0.0002";
    object      mu;
}
// * * * * * * * * * * * * * * * * * * * * * * * * * * * * * * * * * * * * * //

dimensions      [1 -1 -1 0 0 0 0];

internalField   nonuniform List<scalar> 
8400
(
1.68899961489e-05
1.68899961489e-05
1.68899961489e-05
1.68899961489e-05
1.68899961489e-05
1.68899961489e-05
1.68899961489e-05
1.68899961489e-05
1.68899961489e-05
1.68899961489e-05
1.68899961489e-05
1.68899961489e-05
1.68899961489e-05
1.68899961489e-05
1.68899961489e-05
1.68899961489e-05
1.68899961489e-05
1.68899961489e-05
1.68899961489e-05
1.68899961489e-05
1.68899961489e-05
1.68899961489e-05
1.68899961489e-05
1.68899961489e-05
1.68899961489e-05
1.68899961489e-05
1.68899961489e-05
1.68899961489e-05
1.68899961489e-05
1.6889996149e-05
1.68899961565e-05
1.68899966565e-05
1.689003001e-05
1.68910059606e-05
2.43471098951e-05
0.00010116868374
0.000189961903774
0.000126161166325
7.41905733715e-05
5.73566486077e-05
5.21817744345e-05
5.05041087893e-05
4.99027234318e-05
4.95489545565e-05
4.92650205198e-05
4.89933199412e-05
4.87342312921e-05
4.84611419903e-05
4.81826216721e-05
4.78974579694e-05
4.76171202371e-05
4.73193743408e-05
4.70157312137e-05
4.67068549845e-05
4.63944403705e-05
4.6090128112e-05
4.57745485959e-05
4.54616434114e-05
4.51533202938e-05
4.48543468991e-05
4.45787333073e-05
4.43068644556e-05
4.40531852457e-05
4.38232895001e-05
4.36194412305e-05
4.34445198728e-05
4.33008887805e-05
4.31916667651e-05
4.31176019966e-05
4.30602783886e-05
1.68899961488e-05
1.68899961488e-05
1.68899961488e-05
1.68899961488e-05
1.68899961488e-05
1.68899961488e-05
1.68899961488e-05
1.68899961488e-05
1.68899961488e-05
1.68899961488e-05
1.68899961488e-05
1.68899961488e-05
1.68899961488e-05
1.68899961488e-05
1.68899961488e-05
1.68899961488e-05
1.68899961488e-05
1.68899961488e-05
1.68899961488e-05
1.68899961488e-05
1.68899961488e-05
1.68899961488e-05
1.68899961488e-05
1.68899961488e-05
1.68899961488e-05
1.68899961488e-05
1.68899961488e-05
1.68899961488e-05
1.68899961488e-05
1.68899961497e-05
1.68899962082e-05
1.68899999384e-05
1.6890245929e-05
1.68940956642e-05
6.21325779694e-05
0.000153160492835
0.000186914652625
9.28409813269e-05
6.26807568765e-05
5.29776729999e-05
5.02363020452e-05
4.93808146508e-05
4.90340050453e-05
4.87904663319e-05
4.8567181889e-05
4.8333716437e-05
4.81012105193e-05
4.78470593926e-05
4.75833344117e-05
4.73102071813e-05
4.7028517221e-05
4.67397314716e-05
4.64439773046e-05
4.61439092905e-05
4.58403881029e-05
4.55462955323e-05
4.5242060268e-05
4.49426881944e-05
4.46505782755e-05
4.43697689718e-05
4.41019273312e-05
4.38505022295e-05
4.36188838306e-05
4.34197595189e-05
4.32352737938e-05
4.30781707156e-05
4.29497895937e-05
4.28519201925e-05
4.27857825292e-05
4.2739086528e-05
1.68899961488e-05
1.68899961488e-05
1.68899961488e-05
1.68899961488e-05
1.68899961488e-05
1.68899961488e-05
1.68899961488e-05
1.68899961488e-05
1.68899961488e-05
1.68899961488e-05
1.68899961488e-05
1.68899961488e-05
1.68899961488e-05
1.68899961488e-05
1.68899961488e-05
1.68899961488e-05
1.68899961488e-05
1.68899961488e-05
1.68899961488e-05
1.68899961488e-05
1.68899961488e-05
1.68899961488e-05
1.68899961488e-05
1.68899961488e-05
1.68899961488e-05
1.68899961488e-05
1.68899961488e-05
1.68899961488e-05
1.68899961488e-05
1.68899961525e-05
1.68899964053e-05
1.68900137366e-05
1.68907431515e-05
2.04616793608e-05
9.16660979542e-05
0.00017709399026
0.000136762103024
7.64954061781e-05
5.71818741441e-05
5.12001799522e-05
4.95292431022e-05
4.89573126402e-05
4.8707550285e-05
4.84839935321e-05
4.82694448394e-05
4.80455629602e-05
4.78204550962e-05
4.75734249581e-05
4.73157815492e-05
4.70481545896e-05
4.67726399151e-05
4.64891073235e-05
4.62003082464e-05
4.59077438235e-05
4.56115697341e-05
4.53271169651e-05
4.50346448986e-05
4.47475905596e-05
4.44705244271e-05
4.42043235845e-05
4.39511383586e-05
4.37150564657e-05
4.34981192254e-05
4.33136342524e-05
4.31428013428e-05
4.29977972945e-05
4.28796941006e-05
4.27897964376e-05
4.27291383792e-05
4.26883273541e-05
1.68899961488e-05
1.68899961488e-05
1.68899961488e-05
1.68899961488e-05
1.68899961488e-05
1.68899961488e-05
1.68899961488e-05
1.68899961488e-05
1.68899961488e-05
1.68899961488e-05
1.68899961488e-05
1.68899961488e-05
1.68899961488e-05
1.68899961488e-05
1.68899961488e-05
1.68899961488e-05
1.68899961488e-05
1.68899961488e-05
1.68899961488e-05
1.68899961488e-05
1.68899961488e-05
1.68899961488e-05
1.68899961488e-05
1.68899961488e-05
1.68899961488e-05
1.68899961488e-05
1.68899961488e-05
1.68899961488e-05
1.6889996149e-05
1.68899961622e-05
1.68899970263e-05
1.68900546665e-05
1.6891442331e-05
3.16256753656e-05
0.000128922616697
0.000218731179697
0.000112571313959
6.88622993012e-05
5.48214358586e-05
5.06591647426e-05
4.94234787385e-05
4.89994445441e-05
4.87503479366e-05
4.85143246717e-05
4.82975617789e-05
4.80626001815e-05
4.7817592173e-05
4.75632498711e-05
4.72992994541e-05
4.70266237123e-05
4.67469864587e-05
4.64604906361e-05
4.61696421837e-05
4.5876067534e-05
4.55919708948e-05
4.52974855158e-05
4.50083496412e-05
4.4725667961e-05
4.44536311397e-05
4.41938203953e-05
4.39473597591e-05
4.37293901222e-05
4.35189226019e-05
4.33309374311e-05
4.31667285605e-05
4.30278200627e-05
4.29149676944e-05
4.28293640003e-05
4.27718021392e-05
4.27331881878e-05
1.68899961488e-05
1.68899961488e-05
1.68899961488e-05
1.68899961488e-05
1.68899961488e-05
1.68899961488e-05
1.68899961488e-05
1.68899961488e-05
1.68899961488e-05
1.68899961488e-05
1.68899961488e-05
1.68899961488e-05
1.68899961488e-05
1.68899961488e-05
1.68899961488e-05
1.68899961488e-05
1.68899961488e-05
1.68899961488e-05
1.68899961488e-05
1.68899961488e-05
1.68899961488e-05
1.68899961488e-05
1.68899961488e-05
1.68899961488e-05
1.68899961488e-05
1.68899961488e-05
1.68899961488e-05
1.68899961488e-05
1.68899961492e-05
1.68899961794e-05
1.68899981731e-05
1.68901340346e-05
1.68927087069e-05
4.72264554586e-05
0.000145835671062
0.00020657077356
9.99482541224e-05
6.49380749072e-05
5.38734360446e-05
5.06427991952e-05
4.9626636348e-05
4.9265017299e-05
4.9014680597e-05
4.87738589857e-05
4.85285062079e-05
4.82773780332e-05
4.80184009567e-05
4.77503177586e-05
4.74747156926e-05
4.71911006148e-05
4.69016526929e-05
4.66071633419e-05
4.63082567479e-05
4.60190905494e-05
4.57193537834e-05
4.54219829595e-05
4.51297815621e-05
4.48457182625e-05
4.45719701652e-05
4.43229477431e-05
4.40775980092e-05
4.38502952129e-05
4.36424004446e-05
4.34558418587e-05
4.32933719499e-05
4.31559602856e-05
4.30449753784e-05
4.2960894056e-05
4.29043348659e-05
4.28667448715e-05
1.68899961488e-05
1.68899961488e-05
1.68899961488e-05
1.68899961488e-05
1.68899961488e-05
1.68899961488e-05
1.68899961488e-05
1.68899961488e-05
1.68899961488e-05
1.68899961488e-05
1.68899961488e-05
1.68899961488e-05
1.68899961488e-05
1.68899961488e-05
1.68899961488e-05
1.68899961488e-05
1.68899961488e-05
1.68899961488e-05
1.68899961488e-05
1.68899961488e-05
1.68899961488e-05
1.68899961488e-05
1.68899961488e-05
1.68899961488e-05
1.68899961488e-05
1.68899961488e-05
1.68899961488e-05
1.68899961488e-05
1.68899961495e-05
1.68899962035e-05
1.68899997108e-05
1.68902349977e-05
1.68940212752e-05
6.15839028224e-05
0.000153134919254
0.000186979840421
9.31763854689e-05
6.31788595415e-05
5.36276551493e-05
5.09122535922e-05
5.00474128037e-05
4.96901638595e-05
4.9429457912e-05
4.91749687104e-05
4.89145616281e-05
4.86470588742e-05
4.83716938817e-05
4.80892608693e-05
4.77990774315e-05
4.75021609455e-05
4.71996593392e-05
4.68933054305e-05
4.65956128423e-05
4.62863027106e-05
4.59777885809e-05
4.56739842319e-05
4.53760406993e-05
4.50865248773e-05
4.48198780883e-05
4.45550323185e-05
4.43066138634e-05
4.40760962532e-05
4.38662577528e-05
4.36790754073e-05
4.35156807724e-05
4.33774293249e-05
4.3265813766e-05
4.3192573285e-05
4.31351450236e-05
4.30860171633e-05
1.68899961488e-05
1.68899961488e-05
1.68899961488e-05
1.68899961488e-05
1.68899961488e-05
1.68899961488e-05
1.68899961488e-05
1.68899961488e-05
1.68899961488e-05
1.68899961488e-05
1.68899961488e-05
1.68899961488e-05
1.68899961488e-05
1.68899961488e-05
1.68899961488e-05
1.68899961488e-05
1.68899961488e-05
1.68899961488e-05
1.68899961488e-05
1.68899961488e-05
1.68899961488e-05
1.68899961488e-05
1.68899961488e-05
1.68899961488e-05
1.68899961488e-05
1.68899961488e-05
1.68899961488e-05
1.68899961488e-05
1.68899961499e-05
1.68899962308e-05
1.68900014059e-05
1.68903408075e-05
1.68952952784e-05
7.31256067235e-05
0.000158362453477
0.00017291739947
8.90999047631e-05
6.22185567264e-05
5.39434771383e-05
5.13907195027e-05
5.06213396447e-05
5.02629931265e-05
4.99877837877e-05
4.97147071125e-05
4.94358210736e-05
4.91494175787e-05
4.88557710552e-05
4.85552805587e-05
4.82485722386e-05
4.79365215592e-05
4.76303965234e-05
4.73103069011e-05
4.69890454213e-05
4.66676456625e-05
4.63495950887e-05
4.60357271562e-05
4.57292688708e-05
4.54431029545e-05
4.51580644607e-05
4.48876430594e-05
4.46328591311e-05
4.43976649659e-05
4.41832981593e-05
4.39919310667e-05
4.38370226085e-05
4.36964823162e-05
4.35827771159e-05
4.34966681223e-05
4.34386830987e-05
4.34002912499e-05
1.68899961488e-05
1.68899961488e-05
1.68899961488e-05
1.68899961488e-05
1.68899961488e-05
1.68899961488e-05
1.68899961488e-05
1.68899961488e-05
1.68899961488e-05
1.68899961488e-05
1.68899961488e-05
1.68899961488e-05
1.68899961488e-05
1.68899961488e-05
1.68899961488e-05
1.68899961488e-05
1.68899961488e-05
1.68899961488e-05
1.68899961488e-05
1.68899961488e-05
1.68899961488e-05
1.68899961488e-05
1.68899961488e-05
1.68899961488e-05
1.68899961488e-05
1.68899961488e-05
1.68899961488e-05
1.68899961488e-05
1.68899961504e-05
1.68899962586e-05
1.68900030775e-05
1.68904394631e-05
1.68964654636e-05
7.93472027561e-05
0.000162573161357
0.000163448898922
8.67561138101e-05
6.21811980092e-05
5.42946723456e-05
5.20710885436e-05
5.13414365449e-05
5.09737926812e-05
5.06761286058e-05
5.03780665808e-05
5.00767087834e-05
4.97682888898e-05
4.94553173086e-05
4.91360134051e-05
4.88103296723e-05
4.84920101221e-05
4.81580608899e-05
4.78224377692e-05
4.74856932306e-05
4.71513428238e-05
4.68201690678e-05
4.65067361659e-05
4.61891319223e-05
4.58824490967e-05
4.55888287497e-05
4.53092884349e-05
4.50481763198e-05
4.48065818797e-05
4.45975121226e-05
4.44008892681e-05
4.42298805819e-05
4.4085755983e-05
4.39687117579e-05
4.38801326846e-05
4.3820220551e-05
4.37805187972e-05
1.68899961487e-05
1.68899961488e-05
1.68899961488e-05
1.68899961488e-05
1.68899961488e-05
1.68899961488e-05
1.68899961488e-05
1.68899961488e-05
1.68899961488e-05
1.68899961488e-05
1.68899961488e-05
1.68899961488e-05
1.68899961488e-05
1.68899961488e-05
1.68899961488e-05
1.68899961488e-05
1.68899961488e-05
1.68899961488e-05
1.68899961488e-05
1.68899961488e-05
1.68899961488e-05
1.68899961488e-05
1.68899961488e-05
1.68899961488e-05
1.68899961488e-05
1.68899961488e-05
1.68899961488e-05
1.68899961488e-05
1.68899961508e-05
1.68899962855e-05
1.68900046467e-05
1.6890526938e-05
1.75318655104e-05
8.30314718932e-05
0.000166396588397
0.000157197024681
8.52341577392e-05
6.23195166429e-05
5.5087719482e-05
5.2898604487e-05
5.21669490558e-05
5.17937307134e-05
5.14765474622e-05
5.11587911425e-05
5.08348000379e-05
5.05039730138e-05
5.01667974237e-05
4.9824768323e-05
4.94899209836e-05
4.91402827991e-05
4.87872532452e-05
4.84342130786e-05
4.80807334146e-05
4.77300847846e-05
4.73955113825e-05
4.70565912329e-05
4.67266225719e-05
4.64089149483e-05
4.61040030368e-05
4.58155136469e-05
4.55568945988e-05
4.53066254246e-05
4.5079504389e-05
4.48773718788e-05
4.47013034976e-05
4.45522729296e-05
4.44314196018e-05
4.43400593599e-05
4.427840731e-05
4.42376853436e-05
1.68899961487e-05
1.68899961487e-05
1.68899961487e-05
1.68899961487e-05
1.68899961487e-05
1.68899961487e-05
1.68899961487e-05
1.68899961487e-05
1.68899961487e-05
1.68899961487e-05
1.68899961487e-05
1.68899961487e-05
1.68899961487e-05
1.68899961487e-05
1.68899961487e-05
1.68899961487e-05
1.68899961487e-05
1.68899961487e-05
1.68899961487e-05
1.68899961487e-05
1.68899961487e-05
1.68899961487e-05
1.68899961487e-05
1.68899961487e-05
1.68899961487e-05
1.68899961487e-05
1.68899961488e-05
1.68899961488e-05
1.68899961512e-05
1.68899963116e-05
1.68900062633e-05
1.68906021168e-05
1.83237065361e-05
8.59173815299e-05
0.000169459162023
0.000151852620965
8.43546739208e-05
6.26335355923e-05
5.60570142425e-05
5.39002166681e-05
5.31595144622e-05
5.27630251308e-05
5.24133040024e-05
5.20651341177e-05
5.17119283019e-05
5.13535149945e-05
5.09894306592e-05
5.06330185115e-05
5.02612459273e-05
4.98886337848e-05
4.95145230822e-05
4.91408932221e-05
4.8767700807e-05
4.84102725131e-05
4.80477806457e-05
4.7693382892e-05
4.73488352873e-05
4.70177932668e-05
4.67117683997e-05
4.64115178628e-05
4.61305543149e-05
4.58722280546e-05
4.56375037635e-05
4.54282001472e-05
4.52454925916e-05
4.51032429588e-05
4.4978363493e-05
4.48835924262e-05
4.48193811249e-05
4.47778433804e-05
1.68899961487e-05
1.68899961487e-05
1.68899961487e-05
1.68899961487e-05
1.68899961487e-05
1.68899961487e-05
1.68899961487e-05
1.68899961487e-05
1.68899961487e-05
1.68899961487e-05
1.68899961487e-05
1.68899961487e-05
1.68899961487e-05
1.68899961487e-05
1.68899961487e-05
1.68899961487e-05
1.68899961487e-05
1.68899961487e-05
1.68899961487e-05
1.68899961487e-05
1.68899961487e-05
1.68899961487e-05
1.68899961487e-05
1.68899961487e-05
1.68899961487e-05
1.68899961487e-05
1.68899961487e-05
1.68899961488e-05
1.68899961517e-05
1.6889996341e-05
1.68900087875e-05
1.68906731669e-05
1.92503462371e-05
8.85137153386e-05
0.000172262529882
0.000148429761676
8.40649839193e-05
6.3295692676e-05
5.7076197388e-05
5.50826083983e-05
5.42913034665e-05
5.38461226274e-05
5.34613865416e-05
5.3081270012e-05
5.2698163046e-05
5.23099166348e-05
5.19298238144e-05
5.15341379514e-05
5.11369471141e-05
5.07375290165e-05
5.03378277211e-05
4.99514711799e-05
4.95566386539e-05
4.91665816488e-05
4.87857617567e-05
4.84136171766e-05
4.8065627619e-05
4.77173980765e-05
4.73863178073e-05
4.70731698222e-05
4.67811656751e-05
4.6512732799e-05
4.628045219e-05
4.60630730766e-05
4.58731019267e-05
4.57126560635e-05
4.55832110462e-05
4.54850470441e-05
4.54188239855e-05
4.53760329647e-05
1.68899961487e-05
1.68899961487e-05
1.68899961487e-05
1.68899961487e-05
1.68899961487e-05
1.68899961487e-05
1.68899961487e-05
1.68899961487e-05
1.68899961487e-05
1.68899961487e-05
1.68899961487e-05
1.68899961487e-05
1.68899961487e-05
1.68899961487e-05
1.68899961487e-05
1.68899961487e-05
1.68899961487e-05
1.68899961487e-05
1.68899961487e-05
1.68899961487e-05
1.68899961487e-05
1.68899961487e-05
1.68899961487e-05
1.68899961487e-05
1.68899961487e-05
1.68899961487e-05
1.68899961487e-05
1.68899961488e-05
1.68899961522e-05
1.68899963844e-05
1.6890012245e-05
1.68907477923e-05
2.01866978415e-05
9.09666863991e-05
0.000175078852886
0.000145000719049
8.38798628419e-05
6.43082374146e-05
5.83318212664e-05
5.62920832929e-05
5.55391359702e-05
5.50628193152e-05
5.46363321104e-05
5.42197863446e-05
5.38006252449e-05
5.33791447091e-05
5.29663783411e-05
5.25388786293e-05
5.21118603461e-05
5.16840454081e-05
5.12698428261e-05
5.08451864737e-05
5.04254606475e-05
5.00118511193e-05
4.96078186567e-05
4.92275856235e-05
4.8849165405e-05
4.84849249024e-05
4.81381152967e-05
4.78235236238e-05
4.75186293425e-05
4.72376545673e-05
4.6983706618e-05
4.67577854685e-05
4.65602820203e-05
4.63933589627e-05
4.62582633127e-05
4.61684130379e-05
4.60987763872e-05
4.6054365507e-05
1.68899961487e-05
1.68899961487e-05
1.68899961487e-05
1.68899961487e-05
1.68899961487e-05
1.68899961487e-05
1.68899961487e-05
1.68899961487e-05
1.68899961487e-05
1.68899961487e-05
1.68899961487e-05
1.68899961487e-05
1.68899961487e-05
1.68899961487e-05
1.68899961487e-05
1.68899961487e-05
1.68899961487e-05
1.68899961487e-05
1.68899961487e-05
1.68899961487e-05
1.68899961487e-05
1.68899961487e-05
1.68899961487e-05
1.68899961487e-05
1.68899961487e-05
1.68899961487e-05
1.68899961487e-05
1.68899961488e-05
1.6889996153e-05
1.68899964441e-05
1.68900165628e-05
1.68908308061e-05
2.12482369476e-05
9.36155401388e-05
0.000178146213875
0.0001420163056
8.41842730076e-05
6.53304659545e-05
5.96291799405e-05
5.7718024356e-05
5.69227009332e-05
5.64043727661e-05
5.59372663465e-05
5.54774286848e-05
5.50187879255e-05
5.45696103737e-05
5.41069381458e-05
5.36462184342e-05
5.31852800582e-05
5.27385143952e-05
5.22822009454e-05
5.18301534592e-05
5.13832679025e-05
5.0957154861e-05
5.05298553069e-05
5.01146650812e-05
4.97150041742e-05
4.93438834998e-05
4.89789493249e-05
4.86360953355e-05
4.83166083209e-05
4.80238625584e-05
4.77588684134e-05
4.75349105049e-05
4.73291141228e-05
4.71554689952e-05
4.70146581446e-05
4.69073066988e-05
4.68342597457e-05
4.678775441e-05
1.68899961487e-05
1.68899961487e-05
1.68899961487e-05
1.68899961487e-05
1.68899961487e-05
1.68899961487e-05
1.68899961487e-05
1.68899961487e-05
1.68899961487e-05
1.68899961487e-05
1.68899961487e-05
1.68899961487e-05
1.68899961487e-05
1.68899961487e-05
1.68899961487e-05
1.68899961487e-05
1.68899961487e-05
1.68899961487e-05
1.68899961487e-05
1.68899961487e-05
1.68899961487e-05
1.68899961487e-05
1.68899961487e-05
1.68899961487e-05
1.68899961487e-05
1.68899961487e-05
1.68899961487e-05
1.68899961488e-05
1.68899961542e-05
1.68899965256e-05
1.68900220322e-05
1.68909307222e-05
2.25393104844e-05
9.66866536837e-05
0.000182103451764
0.000139368298215
8.44502438e-05
6.66385321451e-05
6.1104052978e-05
5.92385652905e-05
5.84230384232e-05
5.78707862889e-05
5.73582172431e-05
5.68523489861e-05
5.63600449341e-05
5.58575377146e-05
5.53552898018e-05
5.4854919894e-05
5.43702780265e-05
5.38750447571e-05
5.33871693243e-05
5.29040653752e-05
5.2441406879e-05
5.19763880729e-05
5.1523172274e-05
5.10850796406e-05
5.06750241954e-05
5.02716232309e-05
4.9887274435e-05
4.95277186719e-05
4.92052141409e-05
4.88972836079e-05
4.86184034453e-05
4.83706621946e-05
4.81559541227e-05
4.79746209744e-05
4.78272558296e-05
4.77288163562e-05
4.76520663928e-05
4.76030729467e-05
1.68899961487e-05
1.68899961487e-05
1.68899961487e-05
1.68899961487e-05
1.68899961487e-05
1.68899961487e-05
1.68899961487e-05
1.68899961487e-05
1.68899961487e-05
1.68899961487e-05
1.68899961487e-05
1.68899961487e-05
1.68899961487e-05
1.68899961487e-05
1.68899961487e-05
1.68899961487e-05
1.68899961487e-05
1.68899961487e-05
1.68899961487e-05
1.68899961487e-05
1.68899961487e-05
1.68899961487e-05
1.68899961487e-05
1.68899961487e-05
1.68899961487e-05
1.68899961487e-05
1.68899961487e-05
1.68899961488e-05
1.68899961559e-05
1.68899966373e-05
1.68900293413e-05
1.68910517917e-05
2.42411981326e-05
0.000100808970022
0.000186568978719
0.000136718704164
8.48479233922e-05
6.80271128869e-05
6.27412579428e-05
6.09040491283e-05
6.006707669e-05
5.94642108814e-05
5.88986919864e-05
5.83551217265e-05
5.78033837774e-05
5.72549012985e-05
5.67105444124e-05
5.61816770859e-05
5.56439279846e-05
5.51129434663e-05
5.46001700245e-05
5.4083306852e-05
5.35762008052e-05
5.3081221621e-05
5.26132471137e-05
5.21494936877e-05
5.17030263777e-05
5.1277665146e-05
5.08877067474e-05
5.05084756656e-05
5.01578129134e-05
4.9834835836e-05
4.95568250402e-05
4.92965742673e-05
4.90699800773e-05
4.88796453275e-05
4.87255409538e-05
4.86082207138e-05
4.85277144514e-05
4.84765190287e-05
1.68899961487e-05
1.68899961487e-05
1.68899961487e-05
1.68899961487e-05
1.68899961487e-05
1.68899961487e-05
1.68899961487e-05
1.68899961487e-05
1.68899961487e-05
1.68899961487e-05
1.68899961487e-05
1.68899961487e-05
1.68899961487e-05
1.68899961487e-05
1.68899961487e-05
1.68899961487e-05
1.68899961487e-05
1.68899961487e-05
1.68899961487e-05
1.68899961487e-05
1.68899961487e-05
1.68899961487e-05
1.68899961487e-05
1.68899961487e-05
1.68899961487e-05
1.68899961487e-05
1.68899961487e-05
1.68899961489e-05
1.68899961581e-05
1.68899967827e-05
1.68900388077e-05
1.68912106671e-05
2.63824042155e-05
0.000107582848696
0.000192632572281
0.000134225343146
8.55507651126e-05
6.95481956056e-05
6.44716179735e-05
6.26964417544e-05
6.18439537211e-05
6.11889953271e-05
6.05777899849e-05
5.99656691782e-05
5.93599920131e-05
5.87616909571e-05
5.81826895545e-05
5.75975821591e-05
5.70183367156e-05
5.64596912679e-05
5.58963433627e-05
5.53436578683e-05
5.48158090694e-05
5.4288932783e-05
5.37773333028e-05
5.32853268677e-05
5.28254904919e-05
5.23767518078e-05
5.19523296032e-05
5.15538415134e-05
5.11978096803e-05
5.0859657761e-05
5.05543028047e-05
5.02825000241e-05
5.00452836635e-05
4.98595116376e-05
4.96974399883e-05
4.95742951007e-05
4.94895298757e-05
4.94365581706e-05
1.68899961487e-05
1.68899961487e-05
1.68899961487e-05
1.68899961487e-05
1.68899961487e-05
1.68899961487e-05
1.68899961487e-05
1.68899961487e-05
1.68899961487e-05
1.68899961487e-05
1.68899961487e-05
1.68899961487e-05
1.68899961487e-05
1.68899961487e-05
1.68899961487e-05
1.68899961487e-05
1.68899961487e-05
1.68899961487e-05
1.68899961487e-05
1.68899961487e-05
1.68899961487e-05
1.68899961487e-05
1.68899961487e-05
1.68899961487e-05
1.68899961487e-05
1.68899961487e-05
1.68899961487e-05
1.68899961489e-05
1.68899961614e-05
1.68899969837e-05
1.68900516806e-05
1.68914262086e-05
2.95287934586e-05
0.000121305546818
0.000202453956719
0.000131199489338
8.58585784336e-05
7.12100614856e-05
6.65107672613e-05
6.46980209047e-05
6.37735264927e-05
6.30480147908e-05
6.23713544488e-05
6.16993939247e-05
6.10376917753e-05
6.03970075468e-05
5.97525490223e-05
5.9117216446e-05
5.85049041213e-05
5.78898627542e-05
5.7286683767e-05
5.6708107602e-05
5.61320598049e-05
5.55713579792e-05
5.5042744435e-05
5.45199806941e-05
5.40210252231e-05
5.35589353335e-05
5.31110267582e-05
5.26920200764e-05
5.23031160499e-05
5.19619586406e-05
5.16405453525e-05
5.13546583798e-05
5.11067033318e-05
5.08976104423e-05
5.07281806402e-05
5.05986928371e-05
5.05098197826e-05
5.04539343268e-05
1.68899961487e-05
1.68899961487e-05
1.68899961487e-05
1.68899961487e-05
1.68899961487e-05
1.68899961487e-05
1.68899961487e-05
1.68899961487e-05
1.68899961487e-05
1.68899961487e-05
1.68899961487e-05
1.68899961487e-05
1.68899961487e-05
1.68899961487e-05
1.68899961487e-05
1.68899961487e-05
1.68899961487e-05
1.68899961487e-05
1.68899961487e-05
1.68899961487e-05
1.68899961487e-05
1.68899961487e-05
1.68899961487e-05
1.68899961487e-05
1.68899961487e-05
1.68899961487e-05
1.68899961487e-05
1.6889996149e-05
1.68899961661e-05
1.68899972724e-05
1.68900701045e-05
1.68917520348e-05
3.37025776719e-05
0.000131974430694
0.000214814043483
0.000128700659068
8.67000072955e-05
7.29387105107e-05
6.86202869413e-05
6.6793995259e-05
6.58150111795e-05
6.50354572909e-05
6.42831006482e-05
6.35495097537e-05
6.28397642336e-05
6.21301358576e-05
6.14450356774e-05
6.07574773556e-05
6.00827968054e-05
5.94346685851e-05
5.87858595536e-05
5.81534444653e-05
5.75510196566e-05
5.69543087248e-05
5.63786056687e-05
5.58402882469e-05
5.53110227217e-05
5.48104471049e-05
5.43380788754e-05
5.391148114e-05
5.3501389292e-05
5.31283656726e-05
5.27908843458e-05
5.25059933587e-05
5.22448926933e-05
5.20248029597e-05
5.18466022961e-05
5.17102273315e-05
5.16161401312e-05
5.15574091491e-05
1.68899961487e-05
1.68899961487e-05
1.68899961487e-05
1.68899961487e-05
1.68899961487e-05
1.68899961487e-05
1.68899961487e-05
1.68899961487e-05
1.68899961487e-05
1.68899961487e-05
1.68899961487e-05
1.68899961487e-05
1.68899961487e-05
1.68899961487e-05
1.68899961487e-05
1.68899961487e-05
1.68899961487e-05
1.68899961487e-05
1.68899961487e-05
1.68899961487e-05
1.68899961487e-05
1.68899961487e-05
1.68899961487e-05
1.68899961487e-05
1.68899961487e-05
1.68899961487e-05
1.68899961487e-05
1.68899961491e-05
1.6889996173e-05
1.68899977001e-05
1.68900988368e-05
1.68922651362e-05
3.94946959348e-05
0.000139289122421
0.000221258679784
0.000126224626474
8.76499984094e-05
7.48444108974e-05
7.07241503617e-05
6.9025693888e-05
6.80149780743e-05
6.71557673081e-05
6.63294851656e-05
6.55369516333e-05
6.47476015766e-05
6.39869991164e-05
6.32295147521e-05
6.24883719809e-05
6.17742931342e-05
6.10635767139e-05
6.03835172985e-05
5.97073471837e-05
5.9050919802e-05
5.84294999531e-05
5.78164408828e-05
5.72299169207e-05
5.66857417976e-05
5.61557896948e-05
5.56586900803e-05
5.51948379941e-05
5.47798126019e-05
5.43867782879e-05
5.40334681912e-05
5.37195365672e-05
5.34617873865e-05
5.32303879105e-05
5.30431758233e-05
5.28994934682e-05
5.27999762715e-05
5.27379630485e-05
1.68899961487e-05
1.68899961487e-05
1.68899961487e-05
1.68899961487e-05
1.68899961487e-05
1.68899961487e-05
1.68899961487e-05
1.68899961487e-05
1.68899961487e-05
1.68899961487e-05
1.68899961487e-05
1.68899961487e-05
1.68899961487e-05
1.68899961487e-05
1.68899961487e-05
1.68899961487e-05
1.68899961487e-05
1.68899961487e-05
1.68899961487e-05
1.68899961487e-05
1.68899961487e-05
1.68899961487e-05
1.68899961487e-05
1.68899961487e-05
1.68899961487e-05
1.68899961487e-05
1.68899961488e-05
1.68899961493e-05
1.68899961835e-05
1.68899983768e-05
1.6890142987e-05
1.68929734298e-05
4.73053304104e-05
0.000144680097159
0.000219693548213
0.000123826666401
8.85883696068e-05
7.69547988604e-05
7.30515854565e-05
7.13963061446e-05
7.03360800605e-05
6.94028377561e-05
6.85149283573e-05
6.76356376059e-05
6.67894344908e-05
6.59488150865e-05
6.51264949177e-05
6.43376999072e-05
6.35535836035e-05
6.28039724875e-05
6.20600260436e-05
6.13535835002e-05
6.06548605186e-05
5.99788073119e-05
5.9345288364e-05
5.87233511622e-05
5.81323086384e-05
5.75884869693e-05
5.70641423398e-05
5.65743824802e-05
5.61225967213e-05
5.57252366047e-05
5.5353325986e-05
5.50240041622e-05
5.47385736671e-05
5.4513238175e-05
5.43162569395e-05
5.41648667858e-05
5.40590650803e-05
5.39935593757e-05
1.68899961487e-05
1.68899961487e-05
1.68899961487e-05
1.68899961487e-05
1.68899961487e-05
1.68899961487e-05
1.68899961487e-05
1.68899961487e-05
1.68899961487e-05
1.68899961487e-05
1.68899961487e-05
1.68899961487e-05
1.68899961487e-05
1.68899961487e-05
1.68899961487e-05
1.68899961487e-05
1.68899961487e-05
1.68899961487e-05
1.68899961487e-05
1.68899961487e-05
1.68899961487e-05
1.68899961487e-05
1.68899961487e-05
1.68899961487e-05
1.68899961487e-05
1.68899961487e-05
1.68899961488e-05
1.68899961495e-05
1.68899962011e-05
1.68899994864e-05
1.68902148311e-05
1.68939989046e-05
5.73355097548e-05
0.000149561385615
0.000213236875346
0.00012157053072
8.94580753163e-05
7.92176667761e-05
7.56300554419e-05
7.39302044387e-05
7.28043286233e-05
7.1784324949e-05
7.08099516991e-05
6.98500015401e-05
6.89277254275e-05
6.80177643079e-05
6.71426659269e-05
6.62803285809e-05
6.5451876242e-05
6.46316706373e-05
6.38508793314e-05
6.3080132922e-05
6.23492715119e-05
6.16306649139e-05
6.09438836064e-05
6.03016929676e-05
5.96781519313e-05
5.90894040468e-05
5.85531719146e-05
5.80379640089e-05
5.75638543425e-05
5.71467833856e-05
5.67565903943e-05
5.64108089662e-05
5.6110934643e-05
5.58577186509e-05
5.56665281844e-05
5.5506544703e-05
5.53944294424e-05
5.53250860624e-05
1.68899961487e-05
1.68899961487e-05
1.68899961487e-05
1.68899961487e-05
1.68899961487e-05
1.68899961487e-05
1.68899961487e-05
1.68899961487e-05
1.68899961487e-05
1.68899961487e-05
1.68899961487e-05
1.68899961487e-05
1.68899961487e-05
1.68899961487e-05
1.68899961487e-05
1.68899961487e-05
1.68899961487e-05
1.68899961487e-05
1.68899961487e-05
1.68899961487e-05
1.68899961487e-05
1.68899961487e-05
1.68899961487e-05
1.68899961487e-05
1.68899961487e-05
1.68899961487e-05
1.68899961488e-05
1.688999615e-05
1.68899962302e-05
1.68900013043e-05
1.68903281191e-05
1.68954573986e-05
6.96557930231e-05
0.000154418227582
0.000204092037016
0.00011975623377
9.09007925181e-05
8.1717739507e-05
7.82809498e-05
7.66065922945e-05
7.54028553335e-05
7.43031877922e-05
7.3226637034e-05
7.21958441199e-05
7.11813238897e-05
7.02090110616e-05
6.9265379798e-05
6.83341232495e-05
6.7447275495e-05
6.65701563335e-05
6.57211839078e-05
6.49142149076e-05
6.41230779567e-05
6.33777194911e-05
6.2647432068e-05
6.19687739947e-05
6.13094604475e-05
6.06889152303e-05
6.01244572162e-05
5.9583683181e-05
5.90865758395e-05
5.86332230701e-05
5.82398423263e-05
5.78777730619e-05
5.75638777606e-05
5.7298312595e-05
5.70814152873e-05
5.69302396139e-05
5.68116225869e-05
5.67382800813e-05
1.68899961487e-05
1.68899961487e-05
1.68899961487e-05
1.68899961487e-05
1.68899961487e-05
1.68899961487e-05
1.68899961487e-05
1.68899961487e-05
1.68899961487e-05
1.68899961487e-05
1.68899961487e-05
1.68899961487e-05
1.68899961487e-05
1.68899961487e-05
1.68899961487e-05
1.68899961487e-05
1.68899961487e-05
1.68899961487e-05
1.68899961487e-05
1.68899961487e-05
1.68899961487e-05
1.68899961487e-05
1.68899961487e-05
1.68899961487e-05
1.68899961487e-05
1.68899961487e-05
1.68899961488e-05
1.68899961507e-05
1.68899962797e-05
1.68900042971e-05
1.68905023457e-05
1.69388417247e-05
7.93275984471e-05
0.000159947113504
0.000193662451957
0.000117676552202
9.26644399051e-05
8.42584755882e-05
8.11721512573e-05
7.94295334134e-05
7.81349807177e-05
7.69277215768e-05
7.57744010652e-05
7.46447245874e-05
7.35630695843e-05
7.25155413357e-05
7.14839131923e-05
7.04978685795e-05
6.95287069321e-05
6.86064766276e-05
6.76987135042e-05
6.68416322942e-05
6.60005175863e-05
6.52117787789e-05
6.44422749058e-05
6.37094077799e-05
6.30312877537e-05
6.23781742347e-05
6.1766383806e-05
6.12158099318e-05
6.06921543095e-05
6.02167296041e-05
5.98052028199e-05
5.94255396307e-05
5.90962676634e-05
5.88179143315e-05
5.85904756881e-05
5.84307853341e-05
5.83055600134e-05
5.82280723566e-05
1.68899961487e-05
1.68899961487e-05
1.68899961487e-05
1.68899961487e-05
1.68899961487e-05
1.68899961487e-05
1.68899961487e-05
1.68899961487e-05
1.68899961487e-05
1.68899961487e-05
1.68899961487e-05
1.68899961487e-05
1.68899961487e-05
1.68899961487e-05
1.68899961487e-05