/*--------------------------------*- C++ -*----------------------------------*\
| =========                 |                                                 |
| \\      /  F ield         | foam-extend: Open Source CFD                    |
|  \\    /   O peration     | Version:     4.1                                |
|   \\  /    A nd           | Web:         http://www.foam-extend.org         |
|    \\/     M anipulation  |                                                 |
\*---------------------------------------------------------------------------*/
FoamFile
{
    version     2.0;
    format      ascii;
    class       volScalarField;
    location    "0.0002";
    object      N;
}
// * * * * * * * * * * * * * * * * * * * * * * * * * * * * * * * * * * * * * //

dimensions      [0 0 0 0 0 0 0];

internalField   nonuniform List<scalar> 
8400
(
7.7149288963e-105
7.71492889635e-105
7.7149288964e-105
7.71492889645e-105
7.7149288965e-105
7.71492889654e-105
7.71492889659e-105
7.71492889664e-105
7.71492889668e-105
7.71492889673e-105
7.71492889677e-105
7.71492889681e-105
7.71492889685e-105
7.71492889689e-105
7.71492889693e-105
7.71492889697e-105
7.71492889701e-105
7.71492889705e-105
7.71492889709e-105
7.71492889713e-105
7.71492889716e-105
7.7149288972e-105
7.71492889723e-105
7.71492889727e-105
7.7149288973e-105
7.71492889733e-105
7.71492889737e-105
7.7149288974e-105
7.71492889757e-105
7.71492890769e-105
7.71492961844e-105
7.71497702055e-105
7.71813908691e-105
7.81066380727e-105
4.4926222016e-38
0.00011733093798
0.681168719635
0.526195859066
0.329792955279
0.238212135866
0.201961517976
0.188306368094
0.183690594905
0.181609704696
0.180169456182
0.178839453268
0.17758050226
0.176244573313
0.174875122337
0.173463750807
0.172072344933
0.170585718792
0.169064321561
0.167510753579
0.16592994019
0.164383535742
0.162768411195
0.161161062246
0.159571712463
0.158023896883
0.156594235363
0.155176783763
0.153850614077
0.152644432734
0.151571648836
0.150647724168
0.149885366182
0.149301649669
0.148900815555
0.148449472055
7.71492888853e-105
7.71492888855e-105
7.71492888857e-105
7.71492888858e-105
7.7149288886e-105
7.71492888862e-105
7.71492888864e-105
7.71492888866e-105
7.71492888868e-105
7.71492888869e-105
7.71492888871e-105
7.71492888873e-105
7.71492888874e-105
7.71492888876e-105
7.71492888878e-105
7.71492888879e-105
7.71492888881e-105
7.71492888883e-105
7.71492888884e-105
7.71492888886e-105
7.71492888887e-105
7.71492888888e-105
7.7149288889e-105
7.71492888891e-105
7.71492888893e-105
7.71492888894e-105
7.71492888895e-105
7.71492888898e-105
7.71492889017e-105
7.71492897113e-105
7.71493452042e-105
7.71528816034e-105
7.73860922378e-105
8.10358226385e-105
8.28612264789e-11
0.210926361062
0.669376678086
0.412473675686
0.271000488134
0.210688159672
0.188737028922
0.181223256366
0.178666379533
0.177262119994
0.176078349497
0.174860137202
0.173652168409
0.172332033062
0.170962461687
0.169542894269
0.168076631602
0.166572694507
0.165032080943
0.163466299319
0.161877659407
0.1603348131
0.158732556172
0.157153932921
0.1556100538
0.154121979354
0.152698810881
0.151358624241
0.150120984186
0.149059451285
0.148072030234
0.147228133538
0.146536119523
0.14600436249
0.145641608523
0.145287963779
7.71492888607e-105
7.71492888608e-105
7.71492888609e-105
7.7149288861e-105
7.71492888611e-105
7.71492888612e-105
7.71492888613e-105
7.71492888614e-105
7.71492888615e-105
7.71492888616e-105
7.71492888617e-105
7.71492888618e-105
7.71492888619e-105
7.7149288862e-105
7.71492888621e-105
7.71492888622e-105
7.71492888623e-105
7.71492888624e-105
7.71492888625e-105
7.71492888626e-105
7.71492888627e-105
7.71492888628e-105
7.71492888629e-105
7.71492888629e-105
7.7149288863e-105
7.71492888631e-105
7.71492888632e-105
7.7149288864e-105
7.71492889152e-105
7.71492923972e-105
7.71495320104e-105
7.71659629481e-105
7.7857482627e-105
2.18908965587e-38
1.35928051996e-05
0.558382822838
0.555827680022
0.341686756041
0.23897235074
0.197727538558
0.183338524644
0.178542260182
0.176860819148
0.175625560448
0.174493060401
0.173319274043
0.172142491101
0.170852469961
0.169508686119
0.168112092247
0.166673991365
0.165194271866
0.163686410425
0.162157069512
0.16060329817
0.159107959967
0.157566752006
0.156053772802
0.154592269662
0.153183851777
0.151838309906
0.150578733609
0.149419295199
0.148435221796
0.147522458491
0.146747492657
0.146112396078
0.145626025494
0.14529509344
0.144993649291
7.71492888495e-105
7.71492888496e-105
7.71492888497e-105
7.71492888498e-105
7.71492888498e-105
7.71492888499e-105
7.714928885e-105
7.71492888501e-105
7.71492888501e-105
7.71492888502e-105
7.71492888503e-105
7.71492888504e-105
7.71492888504e-105
7.71492888505e-105
7.71492888506e-105
7.71492888506e-105
7.71492888507e-105
7.71492888508e-105
7.71492888508e-105
7.71492888509e-105
7.71492888509e-105
7.7149288851e-105
7.71492888511e-105
7.71492888511e-105
7.71492888512e-105
7.71492888512e-105
7.71492888513e-105
7.71492888539e-105
7.71492890341e-105
7.71493015931e-105
7.71501207951e-105
7.72047664546e-105
7.85203377527e-105
1.72889388352e-25
0.016004453872
0.750072023933
0.484404958205
0.304151398252
0.22361955445
0.192750694871
0.181992603011
0.178603446837
0.177085228187
0.175816097707
0.174680555581
0.173455699492
0.172181606797
0.170860734165
0.169490273853
0.168073170819
0.166618991554
0.165128455641
0.163613116334
0.162079761277
0.160593602209
0.159046680683
0.157526985395
0.156040385156
0.154608472209
0.15323726666
0.151930139461
0.150771951345
0.14964923499
0.148647115002
0.147772265706
0.147031067397
0.146427439808
0.145967061485
0.145656248341
0.145378940283
7.71492888434e-105
7.71492888434e-105
7.71492888435e-105
7.71492888436e-105
7.71492888436e-105
7.71492888437e-105
7.71492888437e-105
7.71492888438e-105
7.71492888439e-105
7.71492888439e-105
7.7149288844e-105
7.7149288844e-105
7.71492888441e-105
7.71492888441e-105
7.71492888442e-105
7.71492888442e-105
7.71492888443e-105
7.71492888443e-105
7.71492888444e-105
7.71492888444e-105
7.71492888445e-105
7.71492888445e-105
7.71492888446e-105
7.71492888446e-105
7.71492888447e-105
7.71492888447e-105
7.71492888448e-105
7.71492888507e-105
7.71492892563e-105
7.71493178609e-105
7.71512080368e-105
7.72800111626e-105
7.9720921796e-105
9.76581541295e-17
0.117861131192
0.705875662167
0.43991264292
0.283363603457
0.216496202135
0.191411779136
0.18266543687
0.179937202403
0.178492262056
0.177220845084
0.175947344079
0.174649910284
0.173312328256
0.17192754421
0.170504164075
0.169038590035
0.167540080513
0.166014122687
0.164461267142
0.162957290051
0.161392817607
0.159837615421
0.158306977932
0.15681749589
0.155379135156
0.154070562189
0.152775699502
0.151572897853
0.150470006835
0.149477908072
0.148612848565
0.147880993628
0.14728830151
0.146838765417
0.146535710159
0.146268838006
7.71492888395e-105
7.71492888396e-105
7.71492888396e-105
7.71492888397e-105
7.71492888397e-105
7.71492888398e-105
7.71492888398e-105
7.71492888399e-105
7.71492888399e-105
7.714928884e-105
7.714928884e-105
7.71492888401e-105
7.71492888401e-105
7.71492888401e-105
7.71492888402e-105
7.71492888402e-105
7.71492888403e-105
7.71492888403e-105
7.71492888403e-105
7.71492888404e-105
7.71492888404e-105
7.71492888405e-105
7.71492888405e-105
7.71492888405e-105
7.71492888406e-105
7.71492888406e-105
7.71492888408e-105
7.71492888513e-105
7.71492895842e-105
7.71493407856e-105
7.71526658678e-105
7.7375728909e-105
8.09652983799e-105
5.98383570124e-11
0.210494553561
0.669421235411
0.413490219836
0.273022415579
0.213653289472
0.192028791502
0.184650489702
0.182143362488
0.180691186823
0.179368188843
0.178031210171
0.176659902044
0.175248089508
0.173798879343
0.172307627053
0.170780674011
0.169223472219
0.167642004567
0.166106057301
0.164505590311
0.162904327057
0.161324494709
0.15977148724
0.158259087237
0.15686731513
0.155479922059
0.154175254382
0.152959033445
0.151847545944
0.1508550791
0.149989818714
0.149257934234
0.148664358203
0.148275385829
0.14796670027
0.147636854142
7.71492888369e-105
7.71492888369e-105
7.7149288837e-105
7.7149288837e-105
7.71492888371e-105
7.71492888371e-105
7.71492888371e-105
7.71492888372e-105
7.71492888372e-105
7.71492888373e-105
7.71492888373e-105
7.71492888373e-105
7.71492888374e-105
7.71492888374e-105
7.71492888374e-105
7.71492888375e-105
7.71492888375e-105
7.71492888375e-105
7.71492888376e-105
7.71492888376e-105
7.71492888376e-105
7.71492888377e-105
7.71492888377e-105
7.71492888377e-105
7.71492888378e-105
7.71492888378e-105
7.71492888381e-105
7.7149288854e-105
7.71492899649e-105
7.71493666364e-105
7.71542728265e-105
7.74760415856e-105
8.21731134468e-105
9.43861886159e-09
0.287208064423
0.641372118132
0.396540499297
0.26692054915
0.214101309047
0.193978783854
0.187501757017
0.185123820049
0.183635540036
0.182234081684
0.180815431632
0.179360557648
0.177867510216
0.176336579783
0.174772274297
0.173178004712
0.171613189886
0.169973802736
0.168324971478
0.166670624246
0.165030786002
0.163408875345
0.161820950168
0.160337521509
0.158853919142
0.157443348689
0.156110674114
0.154877158505
0.153749775011
0.152740466868
0.151925066203
0.151182098535
0.150580835072
0.1501240421
0.149814870175
0.149547680232
7.7149288835e-105
7.7149288835e-105
7.7149288835e-105
7.71492888351e-105
7.71492888351e-105
7.71492888351e-105
7.71492888352e-105
7.71492888352e-105
7.71492888352e-105
7.71492888353e-105
7.71492888353e-105
7.71492888354e-105
7.71492888354e-105
7.71492888354e-105
7.71492888354e-105
7.71492888355e-105
7.71492888355e-105
7.71492888355e-105
7.71492888356e-105
7.71492888356e-105
7.71492888356e-105
7.71492888357e-105
7.71492888357e-105
7.71492888357e-105
7.71492888357e-105
7.71492888358e-105
7.71492888361e-105
7.71492888581e-105
7.71492903667e-105
7.71493929689e-105
7.71558576135e-105
7.75695717076e-105
8.32825042124e-105
2.57208250085e-07
0.350661370371
0.62087244284
0.386177499176
0.26548270604
0.215015266376
0.197094330956
0.191131870844
0.188810269599
0.187241713389
0.185731501387
0.184213721972
0.182661231126
0.18108383142
0.179471602462
0.177823648836
0.176211838816
0.174516916231
0.172810279315
0.17109320206
0.169384272887
0.167687902079
0.166081615536
0.164449747959
0.162869833944
0.16135260224
0.15990239364
0.158543103258
0.157280706084
0.156190057734
0.155160907339
0.154265800733
0.153508746824
0.152892991985
0.152424758366
0.152107203763
0.151836149162
7.71492888335e-105
7.71492888335e-105
7.71492888336e-105
7.71492888336e-105
7.71492888336e-105
7.71492888337e-105
7.71492888337e-105
7.71492888337e-105
7.71492888338e-105
7.71492888338e-105
7.71492888338e-105
7.71492888338e-105
7.71492888339e-105
7.71492888339e-105
7.71492888339e-105
7.7149288834e-105
7.7149288834e-105
7.7149288834e-105
7.7149288834e-105
7.71492888341e-105
7.71492888341e-105
7.71492888341e-105
7.71492888341e-105
7.71492888342e-105
7.71492888342e-105
7.71492888342e-105
7.71492888346e-105
7.71492888626e-105
7.71492907662e-105
7.71494184816e-105
7.71573452842e-105
7.76525020669e-105
3.95777933049e-39
1.06408578987e-06
0.407730198211
0.606370966211
0.379106715646
0.265105786015
0.218291768293
0.201028566708
0.19530797677
0.193039927778
0.191399974839
0.189811087751
0.188197493954
0.186549566226
0.184867999285
0.183158021488
0.181482835727
0.179728078745
0.177952558253
0.176171453968
0.174382814493
0.172603059043
0.170904948607
0.169178928696
0.167496939326
0.165872879523
0.16430855279
0.162822027148
0.161487872024
0.160190324554
0.15901116765
0.157960449772
0.157043881441
0.156266793345
0.155635890695
0.155157838348
0.154834776952
0.154563553458
7.71492888323e-105
7.71492888324e-105
7.71492888324e-105
7.71492888324e-105
7.71492888325e-105
7.71492888325e-105
7.71492888325e-105
7.71492888326e-105
7.71492888326e-105
7.71492888326e-105
7.71492888326e-105
7.71492888327e-105
7.71492888327e-105
7.71492888327e-105
7.71492888327e-105
7.71492888328e-105
7.71492888328e-105
7.71492888328e-105
7.71492888328e-105
7.71492888329e-105
7.71492888329e-105
7.71492888329e-105
7.71492888329e-105
7.71492888329e-105
7.7149288833e-105
7.7149288833e-105
7.71492888335e-105
7.71492888677e-105
7.71492911654e-105
7.71494432055e-105
7.71588779405e-105
7.77237751224e-105
8.84811329233e-39
2.76610710232e-06
0.45275808217
0.59342432237
0.374643636092
0.265703188825
0.22252394279
0.205856345763
0.200306437139
0.197997078132
0.196225875945
0.19450777157
0.19277016675
0.191005988538
0.189209008763
0.187447405962
0.185604880317
0.183754275488
0.18189139471
0.180023151205
0.178149782295
0.17635318142
0.174526691372
0.172739993391
0.17099865558
0.169317839994
0.16776074207
0.166225645164
0.164785838784
0.1634592374
0.162251800973
0.161171035421
0.160225223577
0.159491810652
0.158844208121
0.158353970072
0.158022585403
0.157752275169
7.71492888314e-105
7.71492888314e-105
7.71492888315e-105
7.71492888315e-105
7.71492888315e-105
7.71492888316e-105
7.71492888316e-105
7.71492888316e-105
7.71492888316e-105
7.71492888317e-105
7.71492888317e-105
7.71492888317e-105
7.71492888317e-105
7.71492888318e-105
7.71492888318e-105
7.71492888318e-105
7.71492888318e-105
7.71492888318e-105
7.71492888319e-105
7.71492888319e-105
7.71492888319e-105
7.71492888319e-105
7.71492888319e-105
7.7149288832e-105
7.7149288832e-105
7.7149288832e-105
7.71492888326e-105
7.71492888734e-105
7.71492915875e-105
7.71494710541e-105
7.7161270944e-105
7.77911339595e-105
1.45228105091e-38
5.92755023266e-06
0.493029278887
0.584585229145
0.372561599566
0.267985591065
0.22701817639
0.211564848099
0.20596779938
0.203486780967
0.201576322334
0.199726993078
0.197866975518
0.195978378732
0.194127968945
0.192193510046
0.190246520758
0.1882829206
0.186310236188
0.184397241174
0.18243425156
0.180490866443
0.178591578654
0.176733057074
0.174993877288
0.17324175223
0.171568473186
0.169979690968
0.168496501985
0.167130958401
0.165949420574
0.164837142673
0.163862095518
0.163037613872
0.162372641146
0.161869771452
0.161531684944
0.161261968991
7.71492888307e-105
7.71492888307e-105
7.71492888307e-105
7.71492888307e-105
7.71492888308e-105
7.71492888308e-105
7.71492888308e-105
7.71492888308e-105
7.71492888309e-105
7.71492888309e-105
7.71492888309e-105
7.71492888309e-105
7.71492888309e-105
7.7149288831e-105
7.7149288831e-105
7.7149288831e-105
7.7149288831e-105
7.7149288831e-105
7.71492888311e-105
7.71492888311e-105
7.71492888311e-105
7.71492888311e-105
7.71492888311e-105
7.71492888312e-105
7.71492888312e-105
7.71492888312e-105
7.71492888319e-105
7.71492888803e-105
7.71492921249e-105
7.71495122624e-105
7.71645488263e-105
7.78618823874e-105
2.01946138742e-38
1.13934136937e-05
0.530953268498
0.575542246601
0.370926734055
0.271889838529
0.232642432459
0.217366016794
0.212152786253
0.209590504896
0.207511462473
0.205514111285
0.203505849886
0.201481723893
0.199496950432
0.197432956877
0.195365585433
0.193286454254
0.191267888464
0.189186517544
0.187120705913
0.185079073746
0.18308239885
0.181204376375
0.179328642037
0.177515568805
0.175779419866
0.174200684824
0.172665211903
0.171249413146
0.169967843529
0.168824738525
0.167821405972
0.16697071783
0.166280200918
0.165825742115
0.165473398212
0.165201921767
7.714928883e-105
7.71492888301e-105
7.71492888301e-105
7.71492888301e-105
7.71492888301e-105
7.71492888301e-105
7.71492888302e-105
7.71492888302e-105
7.71492888302e-105
7.71492888302e-105
7.71492888302e-105
7.71492888303e-105
7.71492888303e-105
7.71492888303e-105
7.71492888303e-105
7.71492888303e-105
7.71492888304e-105
7.71492888304e-105
7.71492888304e-105
7.71492888304e-105
7.71492888304e-105
7.71492888305e-105
7.71492888305e-105
7.71492888305e-105
7.71492888305e-105
7.71492888305e-105
7.71492888314e-105
7.71492888894e-105
7.71492928727e-105
7.71495688519e-105
7.71686422759e-105
7.79405833254e-105
2.65521444389e-38
2.19398892653e-05
0.568989976936
0.567707567502
0.371193641408
0.275806048911
0.2384193815
0.224165138312
0.218935872985
0.216244353861
0.214013048705
0.211840644637
0.209672854907
0.207547084735
0.205348503645
0.203153044003
0.200947847738
0.198805667154
0.196605295573
0.194416851345
0.192241916748
0.190165388549
0.188075010354
0.186041011084
0.184078447865
0.182250900189
0.180442337481
0.178737626317
0.177145405841
0.175684655436
0.174358464649
0.173238247052
0.172203534852
0.171330089694
0.170620845179
0.170081429903
0.16971643111
0.169437133303
7.71492888295e-105
7.71492888295e-105
7.71492888295e-105
7.71492888296e-105
7.71492888296e-105
7.71492888296e-105
7.71492888296e-105
7.71492888296e-105
7.71492888297e-105
7.71492888297e-105
7.71492888297e-105
7.71492888297e-105
7.71492888297e-105
7.71492888298e-105
7.71492888298e-105
7.71492888298e-105
7.71492888298e-105
7.71492888298e-105
7.71492888298e-105
7.71492888299e-105
7.71492888299e-105
7.71492888299e-105
7.71492888299e-105
7.71492888299e-105
7.71492888299e-105
7.714928883e-105
7.7149288831e-105
7.71492889029e-105
7.71492939726e-105
7.7149646087e-105
7.71738276042e-105
7.80353084962e-105
3.41928589315e-38
4.44613048447e-05
0.612807821363
0.560490357452
0.371265078484
0.280942204364
0.244958598666
0.231337042903
0.226204676611
0.223430982232
0.22103194677
0.218679245874
0.216388902506
0.214041674688
0.211688271652
0.209334408366
0.207047453638
0.20469817681
0.202374788451
0.200062962307
0.197842055716
0.195600141619
0.193407879045
0.191283856574
0.189293037954
0.187324521942
0.185440990693
0.183672419947
0.182085395917
0.180564314426
0.179182936113
0.177951440877
0.17688310697
0.175981411929
0.175249475289
0.174764630193
0.174384054217
0.174095346842
7.7149288829e-105
7.7149288829e-105
7.71492888291e-105
7.71492888291e-105
7.71492888291e-105
7.71492888291e-105
7.71492888291e-105
7.71492888292e-105
7.71492888292e-105
7.71492888292e-105
7.71492888292e-105
7.71492888292e-105
7.71492888293e-105
7.71492888293e-105
7.71492888293e-105
7.71492888293e-105
7.71492888293e-105
7.71492888293e-105
7.71492888294e-105
7.71492888294e-105
7.71492888294e-105
7.71492888294e-105
7.71492888294e-105
7.71492888294e-105
7.71492888294e-105
7.71492888295e-105
7.71492888308e-105
7.71492889237e-105
7.71492955725e-105
7.71497520039e-105
7.71807568995e-105
7.8150088145e-105
4.41379672869e-38
0.000109327757796
0.653779554715
0.553065509351
0.371779146462
0.286336096366
0.252154606847
0.239104637933
0.234072257249
0.231140570906
0.228543136419
0.226059846016
0.223530747563
0.221007450648
0.218492749961
0.216042773356
0.213537027154
0.211051113732
0.208642127441
0.206199154597
0.203792147671
0.201433279827
0.199199701462
0.196977077862
0.194830765412
0.192777498015
0.190891250999
0.189047617121
0.187339316776
0.185761121307
0.184402616671
0.183121974583
0.182005778813
0.181068355689
0.180311327926
0.179736522818
0.179344949318
0.179055112289
7.71492888286e-105
7.71492888286e-105
7.71492888287e-105
7.71492888287e-105
7.71492888287e-105
7.71492888287e-105
7.71492888287e-105
7.71492888287e-105
7.71492888288e-105
7.71492888288e-105
7.71492888288e-105
7.71492888288e-105
7.71492888288e-105
7.71492888289e-105
7.71492888289e-105
7.71492888289e-105
7.71492888289e-105
7.71492888289e-105
7.71492888289e-105
7.71492888289e-105
7.7149288829e-105
7.7149288829e-105
7.7149288829e-105
7.7149288829e-105
7.7149288829e-105
7.71492888291e-105
7.71492888308e-105
7.71492889539e-105
7.71492977366e-105
7.71498898139e-105
7.71897315149e-105
7.83007094747e-105
5.64083850754e-38
0.000456166809452
0.695375906164
0.545807788099
0.373380077999
0.292191285994
0.259661782374
0.247354932426
0.242457793773
0.239372612231
0.236622715291
0.233872901063
0.231139880413
0.228427301862
0.225795511619
0.223120868737
0.220459797066
0.217883426898
0.215269144723
0.212692253958
0.210221389172
0.207742140237
0.205326793986
0.202994790544
0.200812492574
0.198671893958
0.196641177959
0.19472692809
0.193015718702
0.191382575907
0.189904165055
0.188583540273
0.187427314968
0.18652416297
0.185735799964
0.185140656807
0.184735495962
0.184446390862
7.71492888283e-105
7.71492888283e-105
7.71492888283e-105
7.71492888283e-105
7.71492888283e-105
7.71492888284e-105
7.71492888284e-105
7.71492888284e-105
7.71492888284e-105
7.71492888284e-105
7.71492888284e-105
7.71492888285e-105
7.71492888285e-105
7.71492888285e-105
7.71492888285e-105
7.71492888285e-105
7.71492888285e-105
7.71492888285e-105
7.71492888286e-105
7.71492888286e-105
7.71492888286e-105
7.71492888286e-105
7.71492888286e-105
7.71492888286e-105
7.71492888286e-105
7.71492888287e-105
7.7149288831e-105
7.71492889982e-105
7.7149300799e-105
7.71500804372e-105
7.72019356594e-105
7.85050530029e-105
7.40843638354e-38
0.00484639829192
0.734044410203
0.536912934807
0.373356150741
0.298519269104
0.268431792885
0.25644293288
0.251432877613
0.24811776656
0.245131752599
0.242164189108
0.239228364039
0.236375965911
0.233489070283
0.230626700867
0.227858057583
0.225058804879
0.222298711934
0.219640813507
0.216978308688
0.214374138181
0.211913631478
0.209467577894
0.207123967071
0.204949651859
0.202831083469
0.200844191098
0.198992929927
0.19736868386
0.195829277162
0.194456660233
0.193263481204
0.192256989436
0.19144340611
0.190825174593
0.190406171163
0.190111102703
7.7149288828e-105
7.7149288828e-105
7.7149288828e-105
7.7149288828e-105
7.7149288828e-105
7.7149288828e-105
7.71492888281e-105
7.71492888281e-105
7.71492888281e-105
7.71492888281e-105
7.71492888281e-105
7.71492888281e-105
7.71492888281e-105
7.71492888282e-105
7.71492888282e-105
7.71492888282e-105
7.71492888282e-105
7.71492888282e-105
7.71492888282e-105
7.71492888282e-105
7.71492888283e-105
7.71492888283e-105
7.71492888283e-105
7.71492888283e-105
7.71492888283e-105
7.71492888284e-105
7.71492888317e-105
7.71492890662e-105
7.71493052874e-105
7.71503540676e-105
7.72194023939e-105
7.88139515498e-105
1.16393484285e-23
0.0244427155972
0.750638792122
0.529015435596
0.375260458765
0.304979586249
0.27735226856
0.265818584946
0.260785343966
0.257325508415
0.254068683655
0.250887894983
0.247796535938
0.244686813989
0.241671330787
0.238624562404
0.235616617469
0.232713351152
0.229787951635
0.226920403738
0.224176639842
0.2214433548
0.218794372272
0.216312270555
0.213858496485
0.211531280971
0.20932495626
0.207330592458
0.205402187143
0.203643137606
0.202045711718
0.200698505456
0.199458396135
0.198413816402
0.197570007367
0.196928179328
0.196490814109
0.196189282071
7.71492888277e-105
7.71492888277e-105
7.71492888277e-105
7.71492888277e-105
7.71492888277e-105
7.71492888278e-105
7.71492888278e-105
7.71492888278e-105
7.71492888278e-105
7.71492888278e-105
7.71492888278e-105
7.71492888278e-105
7.71492888279e-105
7.71492888279e-105
7.71492888279e-105
7.71492888279e-105
7.71492888279e-105
7.71492888279e-105
7.71492888279e-105
7.7149288828e-105
7.7149288828e-105
7.7149288828e-105
7.7149288828e-105
7.7149288828e-105
7.7149288828e-105
7.71492888281e-105
7.71492888329e-105
7.71492891644e-105
7.71493117797e-105
7.71507595814e-105
7.7246641934e-105
7.93003958499e-105
4.23750054695e-23
0.0602459502358
0.746333969306
0.520810392296
0.37744996117
0.312028136231
0.286093781612
0.275642674273
0.2706972176
0.266994214134
0.263490693546
0.260119211402
0.256737697266
0.253463409446
0.250181798538
0.246950892206
0.243822029891
0.240686071277
0.237670462159
0.234650124323
0.231700566245
0.228897293766
0.22611546921
0.223442094925
0.220956079967
0.218524622661
0.216234299694
0.214088489799
0.212165117275
0.210334397436
0.20868626099
0.207218387459
0.206016466363
0.204932495055
0.204056383542
0.203388874139
0.202933007844
0.202625988487
7.71492888274e-105
7.71492888274e-105
7.71492888275e-105
7.71492888275e-105
7.71492888275e-105
7.71492888275e-105
7.71492888275e-105
7.71492888275e-105
7.71492888275e-105
7.71492888276e-105
7.71492888276e-105
7.71492888276e-105
7.71492888276e-105
7.71492888276e-105
7.71492888276e-105
7.71492888276e-105
7.71492888277e-105
7.71492888277e-105
7.71492888277e-105
7.71492888277e-105
7.71492888277e-105
7.71492888277e-105
7.71492888277e-105
7.71492888277e-105
7.71492888278e-105
7.71492888279e-105
7.71492888349e-105
7.71492893135e-105
7.71493217689e-105
7.71514011327e-105
7.72884984589e-105
7.99718916215e-105
9.8199926854e-17
0.104440568217
0.732771353201
0.51250008343
0.37944150616
0.319750262985
0.295636535624
0.285911941015
0.280978437639
0.277065957964
0.273384005315
0.269715249306
0.266162145298
0.262605527852
0.259102227446
0.255724480447
0.252340584371
0.249088332746
0.245838265561
0.242736131055
0.239645768837
0.236636866609
0.23380619782
0.231011645624
0.22834524642
0.225886929433
0.223504343342
0.221269274947
0.219198172349
0.217375671556
0.215662311395
0.214143798332
0.212827070812
0.211793036931
0.210884333796
0.210190896653
0.209713352834
0.209398212962
7.71492888272e-105
7.71492888272e-105
7.71492888272e-105
7.71492888272e-105
7.71492888273e-105
7.71492888273e-105
7.71492888273e-105
7.71492888273e-105
7.71492888273e-105
7.71492888273e-105
7.71492888273e-105
7.71492888274e-105
7.71492888274e-105
7.71492888274e-105
7.71492888274e-105
7.71492888274e-105
7.71492888274e-105
7.71492888274e-105
7.71492888274e-105
7.71492888275e-105
7.71492888275e-105
7.71492888275e-105
7.71492888275e-105
7.71492888275e-105
7.71492888275e-105
7.71492888277e-105
7.71492888383e-105
7.71492895592e-105
7.71493384485e-105
7.71524530917e-105
7.73566099718e-105
8.09440900539e-105
7.76593000351e-13
0.160037994818
0.716131119393
0.504278914059
0.381032898973
0.32790545009
0.306054278105
0.296700052326
0.291720783044
0.287557590485
0.283601141634
0.27967362826
0.275875833797
0.272097426177
0.268442020228
0.264811628042
0.261302831093
0.257800087237
0.254446454383
0.25110947402
0.247928849397
0.244780599527
0.241755293611
0.238915920409
0.236143432618
0.233515439776
0.231117208349
0.228799873874
0.226658414331
0.224771502436
0.22299832823
0.221425847036
0.220061373103
0.218910628169
0.21804789645
0.217325199452
0.216825350307
0.216501939755
7.7149288827e-105
7.7149288827e-105
7.7149288827e-105
7.7149288827e-105
7.71492888271e-105
7.71492888271e-105
7.71492888271e-105
7.71492888271e-105
7.71492888271e-105
7.71492888271e-105
7.71492888271e-105
7.71492888272e-105
7.71492888272e-105
7.71492888272e-105
7.71492888272e-105
7.71492888272e-105
7.71492888272e-105
7.71492888272e-105
7.71492888272e-105
7.71492888272e-105
7.71492888273e-105
7.71492888273e-105
7.71492888273e-105
7.71492888273e-105
7.71492888273e-105
7.71492888276e-105
7.71492888443e-105
7.71492899729e-105
7.71493660912e-105
7.71541765728e-105
7.7464012387e-105
8.23268110822e-105
3.93422389369e-09
0.225258530973
0.698035675506
0.497015315598
0.38460417186
0.336813038381
0.316575567243
0.307893512634
0.302822113816
0.298456075041
0.294175140312
0.290048553942
0.285948360588
0.281991583343
0.278122819296
0.274274124652
0.270585413321
0.266905457098
0.263315922726
0.259884278888
0.256493221447
0.253283281467
0.250116015297
0.247160779901
0.244272302252
0.241540989608
0.239052663238
0.236657492596
0.234446551086
0.232420755282
0.230663483986
0.229038985967
0.227631652604
0.22644242062
0.225472938559
0.224807463341
0.224289610286
0.223960597165
7.71492888268e-105
7.71492888268e-105
7.71492888268e-105
7.71492888269e-105
7.71492888269e-105
7.71492888269e-105
7.71492888269e-105
7.71492888269e-105
7.71492888269e-105
7.71492888269e-105
7.7149288827e-105
7.7149288827e-105
7.7149288827e-105
7.7149288827e-105
7.7149288827e-105
7.7149288827e-105
7.7149288827e-105
7.7149288827e-105
7.7149288827e-105
7.71492888271e-105
7.71492888271e-105
7.71492888271e-105
7.71492888271e-105
7.71492888271e-105
7.71492888271e-105
7.71492888275e-105
7.71492888548e-105
7.71492906871e-105
7.71494130145e-105
7.71570138856e-105
7.76291874311e-105
2.57876822933e-40
2.54549743436e-07
0.306100044358
0.677998060406
0.48868578134
0.389177955197
0.345677430245
0.327878676017
0.319479739662
0.314268311343
0.309595231628
0.305115953388
0.300686887994
0.296411539979
0.292234698325
0.288085279809
0.28408913955
0.280127159482
0.276329984108
0.272558198617
0.268976066281
0.2654319185
0.262091435535
0.258809196561
0.255664554007
0.25274394753
0.249914555287
0.247252280743
0.244853434972
0.242557897129
0.240466161088
0.23865430752
0.23697596855
0.235521828335
0.234295076528
0.233293898955
0.2326030332
0.232066008679
0.231732302263
7.71492888267e-105
7.71492888267e-105
7.71492888267e-105
7.71492888267e-105
7.71492888267e-105
7.71492888267e-105
7.71492888267e-105
7.71492888267e-105
7.71492888268e-105
7.71492888268e-105
7.71492888268e-105
7.71492888268e-105
7.71492888268e-105
7.71492888268e-105
7.71492888268e-105
7.71492888268e-105
7.71492888269e-105
7.71492888269e-105
7.71492888269e-105
7.71492888269e-105
7.71492888269e-105
7.71492888269e-105
7.71492888269e-105
7.71492888269e-105
7.71492888269e-105
7.71492888276e-105
7.71492888738e-105
7.71492919268e-105
7.71494901683e-105
7.71616253704e-105
7.7850272171e-105
1.24313525755e-38
3.10791991066e-06
0.396452038753
0.656202115121
0.483223735145
0.393344466727
0.355130068764
0.339255933233
0.331471503926
0.326067041379
0.32115048927
0.31632477677
0.311688181265
0.307166842878
0.302690108514
0.298392463925
0.294135898206
0.290048863593
0.286072063482
0.282140802592
0.278396135481
0.274707523863
0.271139974158
0.267793270724
0.264533158031
0.261512029278
0.258590394959
0.255840889169
0.253364846141
0.251006981894
0.248847332103
0.246982434748
0.245253281685
0.243752273988
0.242483395032
0.241446730835
0.240732642177
0.240173525415
0.239828072322
7.71492888265e-105
7.71492888265e-105
7.71492888265e-105
7.71492888265e-105
7.71492888266e-105
7.71492888266e-105
7.71492888266e-105
7.71492888266e-105
7.71492888266e-105
7.71492888266e-105
7.71492888266e-105
7.71492888266e-105
7.71492888267e-105
7.71492888267e-105
7.71492888267e-105
7.71492888267e-105
7.71492888267e-105
7.71492888267e-105
7.71492888267e-105
7.71492888267e-105
7.71492888267e-105
7.71492888267e-105
7.71492888268e-105
7.71492888268e-105
7.71492888268e-105
7.7149288828e-105
7.71492889085e-105
7.7149294252e-105
7.71496516722e-105
7.7173664068e-105
7.81273942975e-105
3.13001825583e-38
2.34967380038e-05
0.502307451929
0.634864211104
0.477936329167
0.398655903971
0.365773105227
0.351011383676
0.343652649135
0.338104580294
0.3329222908
0.327883481884
0.322976869921
0.318134328832
0.313483911936
0.308961936542
0.304501767675
0.300232368954
0.296007109597
0.291991361655
0.288024415354