/*--------------------------------*- C++ -*----------------------------------*\
| =========                 |                                                 |
| \\      /  F ield         | foam-extend: Open Source CFD                    |
|  \\    /   O peration     | Version:     4.1                                |
|   \\  /    A nd           | Web:         http://www.foam-extend.org         |
|    \\/     M anipulation  |                                                 |
\*---------------------------------------------------------------------------*/
FoamFile
{
    version     2.0;
    format      ascii;
    class       volScalarField;
    location    "0.0002";
    object      N2;
}
// * * * * * * * * * * * * * * * * * * * * * * * * * * * * * * * * * * * * * //

dimensions      [0 0 0 0 0 0 0];

internalField   nonuniform List<scalar> 
8400
(
0.767082
0.767082
0.767082
0.767082
0.767082
0.767082
0.767082
0.767082
0.767082
0.767082
0.767082
0.767082
0.767082
0.767082
0.767082
0.767082
0.767082
0.767082
0.767082
0.767082
0.767082
0.767082
0.767082
0.767082
0.767082
0.767082
0.767082
0.767082
0.767082
0.767082
0.767082
0.767082
0.767082
0.767082
0.767082
0.755677945945
0.0845568775265
4.28773656083e-05
6.67006788325e-06
2.51561341652e-06
1.62325123653e-06
1.35694692664e-06
1.270375704e-06
1.22797055074e-06
1.19718159178e-06
1.16876658262e-06
1.14222761227e-06
1.11460930827e-06
1.086848455e-06
1.05883348201e-06
1.03174292978e-06
1.00343180754e-06
9.75068636587e-07
9.4672848655e-07
9.18557036482e-07
8.91619966625e-07
8.64162057734e-07
8.37454056973e-07
8.11644607879e-07
7.87107068205e-07
7.64924751444e-07
7.4340738572e-07
7.23669304843e-07
7.0607567464e-07
6.90696714452e-07
6.77626539347e-07
6.66966129876e-07
6.5892764685e-07
6.53466375879e-07
6.48029460019e-07
0.767082
0.767082
0.767082
0.767082
0.767082
0.767082
0.767082
0.767082
0.767082
0.767082
0.767082
0.767082
0.767082
0.767082
0.767082
0.767082
0.767082
0.767082
0.767082
0.767082
0.767082
0.767082
0.767082
0.767082
0.767082
0.767082
0.767082
0.767082
0.767082
0.767082
0.767082
0.767082
0.767082
0.767082
0.765939654233
0.554925634709
0.000244134280243
1.4602167219e-05
3.60121266928e-06
1.78257547896e-06
1.34627264986e-06
1.21494831254e-06
1.16879182645e-06
1.14134184627e-06
1.11773562047e-06
1.09360323669e-06
1.06998882596e-06
1.04458153139e-06
1.01865337781e-06
9.92255895146e-07
9.65509600225e-07
9.38601858576e-07
9.11570506488e-07
8.84668713998e-07
8.57959301827e-07
8.32624211368e-07
8.06909798377e-07
7.82111872969e-07
7.58375439541e-07
7.35961581622e-07
7.14955812781e-07
6.9557806124e-07
6.78020483474e-07
6.63185885289e-07
6.49597288282e-07
6.38205826155e-07
6.28923811731e-07
6.21924253075e-07
6.17168595753e-07
6.12994837107e-07
0.767082
0.767082
0.767082
0.767082
0.767082
0.767082
0.767082
0.767082
0.767082
0.767082
0.767082
0.767082
0.767082
0.767082
0.767082
0.767082
0.767082
0.767082
0.767082
0.767082
0.767082
0.767082
0.767082
0.767082
0.767082
0.767082
0.767082
0.767082
0.767082
0.767082
0.767082
0.767082
0.767082
0.767082
0.75456814522
0.207775203977
5.76491435164e-05
7.44023854948e-06
2.50327172492e-06
1.50722702795e-06
1.2464253049e-06
1.16366435354e-06
1.1329937605e-06
1.1088986123e-06
1.08663911135e-06
1.06388840319e-06
1.04138905478e-06
1.01706576114e-06
9.92130049978e-07
9.66671167362e-07
9.4093283186e-07
9.14939089583e-07
8.88967225586e-07
8.63153006798e-07
8.37491608389e-07
8.13331450356e-07
7.88980736594e-07
7.65558102632e-07
7.43363482178e-07
7.22397179197e-07
7.02776181241e-07
6.84763837632e-07
6.68459244298e-07
6.54875064364e-07
6.42435947486e-07
6.31968641056e-07
6.23551847811e-07
6.17139267623e-07
6.12795187021e-07
6.09275726523e-07
0.767082
0.767082
0.767082
0.767082
0.767082
0.767082
0.767082
0.767082
0.767082
0.767082
0.767082
0.767082
0.767082
0.767082
0.767082
0.767082
0.767082
0.767082
0.767082
0.767082
0.767082
0.767082
0.767082
0.767082
0.767082
0.767082
0.767082
0.767082
0.767082
0.767082
0.767082
0.767082
0.767082
0.76708198113
0.748101064346
0.00451268927398
2.85578861701e-05
5.10845373639e-06
2.08781641279e-06
1.41682872575e-06
1.22580773805e-06
1.16640278343e-06
1.13748847675e-06
1.11237203761e-06
1.0899777362e-06
1.06613445402e-06
1.04168623399e-06
1.01672186567e-06
9.9125325274e-07
9.65397144171e-07
9.39359499045e-07
9.13174731484e-07
8.87088945071e-07
8.61238832224e-07
8.36707185443e-07
8.11735426129e-07
7.87729403442e-07
7.64720843523e-07
7.42982333081e-07
7.22553293572e-07
7.03467635308e-07
6.86855966618e-07
6.71072745399e-07
6.57187783685e-07
6.45194411599e-07
6.35190827938e-07
6.27098621321e-07
6.21024796156e-07
6.16933132525e-07
6.1360749133e-07
0.767082
0.767082
0.767082
0.767082
0.767082
0.767082
0.767082
0.767082
0.767082
0.767082
0.767082
0.767082
0.767082
0.767082
0.767082
0.767082
0.767082
0.767082
0.767082
0.767082
0.767082
0.767082
0.767082
0.767082
0.767082
0.767082
0.767082
0.767082
0.767082
0.767082
0.767082
0.767082
0.767082
0.76701673814
0.647698070327
0.000510258646525
1.88478422848e-05
4.11573542897e-06
1.92246762405e-06
1.4007649044e-06
1.24405099511e-06
1.19451895119e-06
1.16590148515e-06
1.14009222507e-06
1.11447899556e-06
1.08872896598e-06
1.06261721812e-06
1.03604247349e-06
1.00919146784e-06
9.82055496131e-07
9.54856202811e-07
9.27703580394e-07
9.00668446891e-07
8.75035319327e-07
8.48944551924e-07
8.23563537064e-07
7.99107699734e-07
7.7579666648e-07
7.53750997265e-07
7.34051069432e-07
7.14920440712e-07
6.97470028241e-07
6.81727359391e-07
6.67817681465e-07
6.55862923967e-07
6.45815729558e-07
6.37827871973e-07
6.3178371643e-07
6.27714957759e-07
6.24507864504e-07
0.767082
0.767082
0.767082
0.767082
0.767082
0.767082
0.767082
0.767082
0.767082
0.767082
0.767082
0.767082
0.767082
0.767082
0.767082
0.767082
0.767082
0.767082
0.767082
0.767082
0.767082
0.767082
0.767082
0.767082
0.767082
0.767082
0.767082
0.767082
0.767082
0.767082
0.767082
0.767082
0.767082
0.766048464258
0.555356092365
0.00024459950564
1.47876680005e-05
3.70458662665e-06
1.86958735123e-06
1.42431668709e-06
1.28928228652e-06
1.24139539974e-06
1.21140600369e-06
1.18366678782e-06
1.15592211157e-06
1.12792445273e-06
1.09959317161e-06
1.07103527108e-06
1.04221906063e-06
1.01327108233e-06
9.84333461971e-07
9.55568859605e-07
9.28195169426e-07
9.0026227842e-07
8.72985394656e-07
8.46651663008e-07
8.21325097498e-07
7.97182685691e-07
7.75392083808e-07
7.54122130505e-07
7.34490703914e-07
7.16510047932e-07
7.00340308608e-07
6.86172803545e-07
6.73954903695e-07
6.63716342732e-07
6.55536417532e-07
6.50206480435e-07
6.4599902698e-07
6.41854656986e-07
0.767082
0.767082
0.767082
0.767082
0.767082
0.767082
0.767082
0.767082
0.767082
0.767082
0.767082
0.767082
0.767082
0.767082
0.767082
0.767082
0.767082
0.767082
0.767082
0.767082
0.767082
0.767082
0.767082
0.767082
0.767082
0.767082
0.767082
0.767082
0.767082
0.767082
0.767082
0.767082
0.767082
0.762909630315
0.478781550837
0.00015933790685
1.26681138913e-05
3.48628737127e-06
1.90153577713e-06
1.47695462604e-06
1.35445156795e-06
1.30653643888e-06
1.27429814609e-06
1.24371085844e-06
1.21314159261e-06
1.18231666729e-06
1.15126375382e-06
1.12004699492e-06
1.08876188053e-06
1.05753231854e-06
1.0274894221e-06
9.96674058153e-07
9.66413323077e-07
9.36725937743e-07
9.07931267489e-07
8.80074269427e-07
8.53401215515e-07
8.29009035774e-07
8.05143291648e-07
7.82917079101e-07
7.62341395077e-07
7.43654474942e-07
7.2685628967e-07
7.12029003111e-07
7.00186303214e-07
6.89550665295e-07
6.81001706182e-07
6.74564182452e-07
6.70265903384e-07
6.66879444731e-07
0.767082
0.767082
0.767082
0.767082
0.767082
0.767082
0.767082
0.767082
0.767082
0.767082
0.767082
0.767082
0.767082
0.767082
0.767082
0.767082
0.767082
0.767082
0.767082
0.767082
0.767082
0.767082
0.767082
0.767082
0.767082
0.767082
0.767082
0.767082
0.767082
0.767082
0.767082
0.767082
0.767082
0.759586893601
0.415409350935
0.000121471202635
1.15505510225e-05
3.46589399885e-06
1.94248684436e-06
1.55840064474e-06
1.44000502999e-06
1.39033094e-06
1.35452183641e-06
1.31998478915e-06
1.28576073732e-06
1.25137488233e-06
1.2171511512e-06
1.18288025776e-06
1.14857614463e-06
1.11569905028e-06
1.08186148652e-06
1.04853941347e-06
1.01579832158e-06
9.83975649221e-07
9.53088790235e-07
9.2446732977e-07
8.96031851435e-07
8.69113309143e-07
8.43821848058e-07
8.20174934295e-07
7.98472313345e-07
7.78715568378e-07
7.61920947807e-07
7.46304091066e-07
7.32861542052e-07
7.217091668e-07
7.12656571304e-07
7.0589256499e-07
7.01316422068e-07
6.97747589861e-07
0.767082
0.767082
0.767082
0.767082
0.767082
0.767082
0.767082
0.767082
0.767082
0.767082
0.767082
0.767082
0.767082
0.767082
0.767082
0.767082
0.767082
0.767082
0.767082
0.767082
0.767082
0.767082
0.767082
0.767082
0.767082
0.767082
0.767082
0.767082
0.767082
0.767082
0.767082
0.767082
0.767082
0.757570311177
0.358395602582
0.000101896400599
1.08610042315e-05
3.48404635504e-06
2.05194708575e-06
1.66345293859e-06
1.54281085247e-06
1.49111668876e-06
1.45149244651e-06
1.41316736281e-06
1.37490892006e-06
1.33662082886e-06
1.29830785564e-06
1.26012815166e-06
1.22347813735e-06
1.18593720248e-06
1.14886532809e-06
1.11254890143e-06
1.07690903772e-06
1.04225912864e-06
1.00996060417e-06
9.77928496221e-07
9.47389273312e-07
9.18562833956e-07
8.91410466646e-07
8.66181141137e-07
8.43986313353e-07
8.22826877905e-07
8.03926736994e-07
7.87329443667e-07
7.73059100452e-07
7.61138123623e-07
7.5151528984e-07
7.44313591144e-07
7.3948562702e-07
7.35785327684e-07
0.767082
0.767082
0.767082
0.767082
0.767082
0.767082
0.767082
0.767082
0.767082
0.767082
0.767082
0.767082
0.767082
0.767082
0.767082
0.767082
0.767082
0.767082
0.767082
0.767082
0.767082
0.767082
0.767082
0.767082
0.767082
0.767082
0.767082
0.767082
0.767082
0.767082
0.767082
0.767082
0.767082
0.756208832648
0.313396233205
8.77412377485e-05
1.04745770461e-05
3.54059541009e-06
2.19465384211e-06
1.79798078549e-06
1.67275856279e-06
1.61600328842e-06
1.57038626341e-06
1.52639264568e-06
1.48268904186e-06
1.43920030051e-06
1.39596818252e-06
1.35448508326e-06
1.31205899706e-06
1.27034954315e-06
1.22940086703e-06
1.1893150826e-06
1.15007336145e-06
1.11335759593e-06
1.07695121539e-06
1.04211619594e-06
1.00893643154e-06
9.77691492136e-07
9.49404621936e-07
9.22138315024e-07
8.97082673474e-07
8.74424504196e-07
8.54144276048e-07
8.36357235315e-07
8.21000384371e-07
8.09163590515e-07
7.98900600652e-07
7.91146921002e-07
7.8590541153e-07
7.82064824141e-07
0.767082
0.767082
0.767082
0.767082
0.767082
0.767082
0.767082
0.767082
0.767082
0.767082
0.767082
0.767082
0.767082
0.767082
0.767082
0.767082
0.767082
0.767082
0.767082
0.767082
0.767082
0.767082
0.767082
0.767082
0.767082
0.767082
0.767082
0.767082
0.767082
0.767082
0.767082
0.767082
0.767082
0.755262837846
0.273138472867
7.97234447464e-05
1.0347712628e-05
3.67321314847e-06
2.3528123025e-06
1.96639894434e-06
1.82938805227e-06
1.76328157099e-06
1.7104834547e-06
1.65986049536e-06
1.60997725037e-06
1.56050296905e-06
1.51304201671e-06
1.46458545215e-06
1.41709270625e-06
1.37030599089e-06
1.32444266634e-06
1.28115027989e-06
1.2377550215e-06
1.19580291206e-06
1.15585953548e-06
1.11766285268e-06
1.08271256917e-06
1.0484175148e-06
1.01646157053e-06
9.8679456113e-07
9.59653530635e-07
9.35132770308e-07
9.14265324044e-07
8.94964184424e-07
8.78355607859e-07
8.64444202455e-07
8.53346690936e-07
8.44977173938e-07
8.39422400858e-07
8.35355567284e-07
0.767082
0.767082
0.767082
0.767082
0.767082
0.767082
0.767082
0.767082
0.767082
0.767082
0.767082
0.767082
0.767082
0.767082
0.767082
0.767082
0.767082
0.767082
0.767082
0.767082
0.767082
0.767082
0.767082
0.767082
0.767082
0.767082
0.767082
0.767082
0.767082
0.767082
0.767082
0.767082
0.767082
0.754673332226
0.235212749462
7.24092377066e-05
1.02667802995e-05
3.88770851028e-06
2.55976862359e-06
2.14927051086e-06
2.01244806646e-06
1.93842342166e-06
1.87662766154e-06
1.81791659153e-06
1.76015915359e-06
1.70337836023e-06
1.64895506814e-06
1.59382741255e-06
1.53997817863e-06
1.48718398383e-06
1.43729699148e-06
1.38717248477e-06
1.33880500104e-06
1.292209632e-06
1.24772706513e-06
1.20691443109e-06
1.16708884976e-06
1.12950483254e-06
1.0944404266e-06
1.06326479355e-06
1.03359894467e-06
1.00675730249e-06
9.8288522673e-07
9.61946903707e-07
9.43901893288e-07
9.28770624776e-07
9.16641800385e-07
9.08650515881e-07
9.02547183806e-07
8.98201713087e-07
0.767082
0.767082
0.767082
0.767082
0.767082
0.767082
0.767082
0.767082
0.767082
0.767082
0.767082
0.767082
0.767082
0.767082
0.767082
0.767082
0.767082
0.767082
0.767082
0.767082
0.767082
0.767082
0.767082
0.767082
0.767082
0.767082
0.767082
0.767082
0.767082
0.767082
0.767082
0.767082
0.767082
0.754404559743
0.197152564111
6.68489339898e-05
1.03949910796e-05
4.11305312127e-06
2.78634517743e-06
2.37918859688e-06
2.22878383704e-06
2.14385538538e-06
2.07186243189e-06
2.00306578249e-06
1.93598965804e-06
1.87183656881e-06
1.80719752562e-06
1.74425153629e-06
1.68276238572e-06
1.62452240282e-06
1.56644017564e-06
1.51016780747e-06
1.45589419165e-06
1.40527756822e-06
1.35582770248e-06
1.30884573598e-06
1.2646601404e-06
1.22453959162e-06
1.1858180824e-06
1.1501142936e-06
1.11746165571e-06
1.08811336221e-06
1.06197977196e-06
1.04026674044e-06
1.0205130003e-06
1.00400935214e-06
9.90825792065e-07
9.80819134283e-07
9.7406302464e-07
9.69351066765e-07
0.767082
0.767082
0.767082
0.767082
0.767082
0.767082
0.767082
0.767082
0.767082
0.767082
0.767082
0.767082
0.767082
0.767082
0.767082
0.767082
0.767082
0.767082
0.767082
0.767082
0.767082
0.767082
0.767082
0.767082
0.767082
0.767082
0.767082
0.767082
0.767082
0.767082
0.767082
0.767082
0.767082
0.754576674468
0.15326485108
6.22644467555e-05
1.05068774253e-05
4.41661365511e-06
3.06041439237e-06
2.64138992954e-06
2.47968403755e-06
2.3837334969e-06
2.29941736335e-06
2.21865752816e-06
2.14186151296e-06
2.06540870482e-06
1.99077671932e-06
1.91821277494e-06
1.84967918325e-06
1.78120958299e-06
1.71543329276e-06
1.65174200953e-06
1.59236667197e-06
1.53397904051e-06
1.47855921436e-06
1.42615606326e-06
1.37840110216e-06
1.33234936733e-06
1.28935583985e-06
1.25000720186e-06
1.2154255186e-06
1.18296801892e-06
1.15404325496e-06
1.128695431e-06
1.10703969554e-06
1.08898618253e-06
1.07441352465e-06
1.06486224679e-06
1.0574216198e-06
1.05219262119e-06
0.767082
0.767082
0.767082
0.767082
0.767082
0.767082
0.767082
0.767082
0.767082
0.767082
0.767082
0.767082
0.767082
0.767082
0.767082
0.767082
0.767082
0.767082
0.767082
0.767082
0.767082
0.767082
0.767082
0.767082
0.767082
0.767082
0.767082
0.767082
0.767082
0.767082
0.767082
0.767082
0.767082
0.755543722871
0.112139666107
5.79834400003e-05
1.06773043514e-05
4.75560761005e-06
3.38569276827e-06
2.94950860363e-06
2.77466906037e-06
2.66317224442e-06
2.56361793772e-06
2.47062301541e-06
2.37849478535e-06
2.28929893867e-06
2.20298525161e-06
2.12120023817e-06
2.04015879228e-06
1.96212957588e-06
1.88860093572e-06
1.81642869146e-06
1.74732488979e-06
1.68150248662e-06
1.62087366601e-06
1.56216677531e-06
1.50703850034e-06
1.45566906992e-06
1.40960338343e-06
1.36575812977e-06
1.32601362808e-06
1.29006636895e-06
1.2596644407e-06
1.23157261648e-06
1.20741894134e-06
1.18748715157e-06
1.17146829174e-06
1.15943685925e-06
1.15122085536e-06
1.14556891647e-06
0.767082
0.767082
0.767082
0.767082
0.767082
0.767082
0.767082
0.767082
0.767082
0.767082
0.767082
0.767082
0.767082
0.767082
0.767082
0.767082
0.767082
0.767082
0.767082
0.767082
0.767082
0.767082
0.767082
0.767082
0.767082
0.767082
0.767082
0.767082
0.767082
0.767082
0.767082
0.767082
0.767082
0.757927178042
0.0701559656407
5.42088064869e-05
1.09858066362e-05
5.14743641513e-06
3.75387593144e-06
3.30671363181e-06
3.11804133822e-06
2.98835107231e-06
2.87269275426e-06
2.76012584663e-06
2.65177962805e-06
2.54751285472e-06
2.44924058848e-06
2.35242147818e-06
2.25913431698e-06
2.17159433531e-06
2.08551196027e-06
2.00319330045e-06
1.92675105613e-06
1.85231087028e-06
1.78182635812e-06
1.71583008276e-06
1.65558391137e-06
1.59818609653e-06
1.54503060077e-06
1.49614818946e-06
1.45347257151e-06
1.41363924577e-06
1.37827350125e-06
1.34724769285e-06
1.32050359354e-06
1.29993922747e-06
1.28210216076e-06
1.26876471673e-06
1.25964472756e-06
1.25354701874e-06
0.767082
0.767082
0.767082
0.767082
0.767082
0.767082
0.767082
0.767082
0.767082
0.767082
0.767082
0.767082
0.767082
0.767082
0.767082
0.767082
0.767082
0.767082
0.767082
0.767082
0.767082
0.767082
0.767082
0.767082
0.767082
0.767082
0.767082
0.767082
0.767082
0.767082
0.767082
0.767082
0.767082
0.757879997464
0.0301379706014
4.98986809904e-05
1.11193995974e-05
5.6011353119e-06
4.22197714109e-06
3.7380209263e-06
3.52100253426e-06
3.36643107186e-06
3.2283118132e-06
3.09515784545e-06
2.967670672e-06
2.8476858977e-06
2.73024446924e-06
2.61769779315e-06
2.51228014453e-06
2.40910483088e-06
2.31060647596e-06
2.21868286335e-06
2.12957032995e-06
2.04516429369e-06
1.96766396817e-06
1.89293364588e-06
1.8234172128e-06
1.76054436037e-06
1.70101858549e-06
1.64655782856e-06
1.59698265992e-06
1.55436571644e-06
1.51482923822e-06
1.48024651155e-06
1.45068066538e-06
1.42604714228e-06
1.40629100399e-06
1.39141481436e-06
1.38131551818e-06
1.3746115442e-06
0.767082
0.767082
0.767082
0.767082
0.767082
0.767082
0.767082
0.767082
0.767082
0.767082
0.767082
0.767082
0.767082
0.767082
0.767082
0.767082
0.767082
0.767082
0.767082
0.767082
0.767082
0.767082
0.767082
0.767082
0.767082
0.767082
0.767082
0.767082
0.767082
0.767082
0.767082
0.767082
0.767080707815
0.740032056882
0.00889717996285
4.65418954911e-05
1.14997712952e-05
6.10154119557e-06
4.74605300463e-06
4.22776228368e-06
3.98268619724e-06
3.80366452154e-06
3.63759622637e-06
3.48053780728e-06
3.33306069983e-06
3.18980929396e-06
3.05551619362e-06
2.92457031624e-06
2.79971969691e-06
2.68318014609e-06
2.56975688113e-06
2.462258579e-06
2.36279526516e-06
2.26681428764e-06
2.176644446e-06
2.09451954397e-06
2.01592972948e-06
1.94332574666e-06
1.87648256652e-06
1.81743630511e-06
1.76183678395e-06
1.71226486485e-06
1.66817524656e-06
1.63159485862e-06
1.59848769514e-06
1.57098275277e-06
1.54900644183e-06
1.53233883579e-06
1.52097226883e-06
1.51362368183e-06
0.767082
0.767082
0.767082
0.767082
0.767082
0.767082
0.767082
0.767082
0.767082
0.767082
0.767082
0.767082
0.767082
0.767082
0.767082
0.767082
0.767082
0.767082
0.767082
0.767082
0.767082
0.767082
0.767082
0.767082
0.767082
0.767082
0.767082
0.767082
0.767082
0.767082
0.767082
0.767082
0.767077180752
0.704902518898
0.00289825969169
4.33751616492e-05
1.19408329453e-05
6.68912460042e-06
5.31062269352e-06
4.79414050822e-06
4.52288417469e-06
4.30904591131e-06
4.11124237263e-06
3.92763835482e-06
3.75029778226e-06
3.58461542014e-06
3.42448671485e-06
3.27245665936e-06
3.13036660328e-06
2.99305303543e-06
2.86550295264e-06
2.74228088948e-06
2.62604078808e-06
2.51910187647e-06
2.41644048376e-06
2.32086628021e-06
2.23461145358e-06
2.15254560356e-06
2.07746220232e-06
2.00886950077e-06
1.94896552161e-06
1.89324193463e-06
1.8440760121e-06
1.80111348764e-06
1.76640540853e-06
1.73555608289e-06
1.7109736586e-06
1.69225708404e-06
1.67952764703e-06
1.67132778949e-06
0.767082
0.767082
0.767082
0.767082
0.767082
0.767082
0.767082
0.767082
0.767082
0.767082
0.767082
0.767082
0.767082
0.767082
0.767082
0.767082
0.767082
0.767082
0.767082
0.767082
0.767082
0.767082
0.767082
0.767082
0.767082
0.767082
0.767082
0.767082
0.767082
0.767082
0.767082
0.767082
0.767015593175
0.661038744804
0.00126457654339
4.04866732519e-05
1.23874702592e-05
7.38555876023e-06
5.98730409135e-06
5.4492421374e-06
5.14304448323e-06
4.89077696741e-06
4.65997431903e-06
4.43876204433e-06
4.23263725786e-06
4.03454244914e-06
3.84679328805e-06
3.67237664358e-06
3.50423370218e-06
3.3484421257e-06
3.19835325379e-06
3.06008680748e-06
2.92732056586e-06
2.80251867193e-06
2.6889476286e-06
2.58043351076e-06
2.48004718643e-06
2.3900408774e-06
2.3054500401e-06
2.22812320192e-06
2.15839492326e-06
2.09834550816e-06
2.04308934568e-06
1.99499785846e-06
1.95394857054e-06
1.92197582121e-06
1.89437188652e-06
1.87335750393e-06
1.85891170921e-06
1.84973338544e-06
0.767082
0.767082
0.767082
0.767082
0.767082
0.767082
0.767082
0.767082
0.767082
0.767082
0.767082
0.767082
0.767082
0.767082
0.767082
0.767082
0.767082
0.767082
0.767082
0.767082
0.767082
0.767082
0.767082
0.767082
0.767082
0.767082
0.767082
0.767082
0.767082
0.767082
0.767082
0.767082
0.766549756729
0.605664350241
0.000703074092252
3.79195443957e-05
1.28095956642e-05
8.18799131395e-06
6.80401360874e-06
6.21276721097e-06
5.86145018523e-06
5.5614526121e-06
5.28586320722e-06
5.02342571095e-06
4.77989190614e-06
4.54733262704e-06
4.33124939323e-06
4.12516121044e-06
3.93350605729e-06
3.74960940581e-06
3.58014984729e-06
3.4179462651e-06
3.26875730676e-06
3.12635229151e-06
2.99409904971e-06
2.87390260085e-06
2.76040531897e-06
2.65604465679e-06
2.56332710841e-06
2.47636868185e-06
2.39796572179e-06
2.33052832149e-06
2.26857608274e-06
2.21461660171e-06
2.16853035857e-06
2.13011307243e-06
2.10163051396e-06
2.07786215104e-06
2.06153402794e-06
2.05126599834e-06
0.767082
0.767082
0.767082
0.767082
0.767082
0.767082
0.767082
0.767082
0.767082
0.767082
0.767082
0.767082
0.767082
0.767082
0.767082
0.767082
0.767082
0.767082
0.767082
0.767082
0.767082
0.767082
0.767082
0.767082
0.767082
0.767082
0.767082
0.767082
0.767082
0.767082
0.767082
0.767082
0.76411042771
0.54060549973
0.000446752449427
3.59612174463e-05
1.35404083619e-05
9.14484922383e-06
7.72033703644e-06
7.09433797439e-06
6.68698387742e-06
6.33419955031e-06
6.00219724711e-06
5.69565104218e-06
5.40443376738e-06
5.13518379812e-06
4.88270472068e-06
4.64184632478e-06
4.42015634243e-06
4.20790264887e-06
4.0090144853e-06
3.82616373019e-06
3.6523041094e-06
3.49353020197e-06
3.34245673879e-06
3.20611742471e-06
3.0772559279e-06
2.95918740741e-06
2.85463297459e-06
2.75664021477e-06
2.66872731085e-06
2.59006545046e-06
2.52317715455e-06
2.46263200653e-06
2.41103628483e-06
2.36801032944e-06
2.33324358033e-06
2.30941082234e-06
2.29080557337e-06
2.27932786547e-06
0.767082
0.767082
0.767082
0.767082
0.767082
0.767082
0.767082
0.767082
0.767082
0.767082
0.767082
0.767082
0.767082
0.767082
0.767082
0.767082
0.767082
0.767082
0.767082
0.767082
0.767082
0.767082
0.767082
0.767082
0.767082
0.767082
0.767082
0.767082
0.767082
0.767082
0.767082
0.767082
0.759595479778
0.459897697085
0.000302155569422
3.38075473303e-05
1.44766499528e-05
1.01957831913e-05
8.81364149054e-06
8.11275266286e-06
7.63560289609e-06
7.21269034328e-06
6.82451312917e-06
6.45831471009e-06
6.12067368744e-06
5.80551992827e-06
5.50596096392e-06
5.22993074112e-06
4.96768568836e-06
4.72685023066e-06
4.49741967625e-06
4.28777582901e-06
4.08864749862e-06
3.90767899129e-06
3.736393284e-06
3.57801550523e-06
3.43564584362e-06
3.30211266655e-06
3.18032702788e-06
3.07349693595e-06
2.9740434525e-06
2.88560040856e-06
2.81066045214e-06
2.74264483023e-06
2.6845938375e-06
2.6361697335e-06
2.59720247099e-06
2.57015514994e-06
2.5492561286e-06
2.53632241235e-06
0.767082
0.767082
0.767082
0.767082
0.767082
0.767082
0.767082
0.767082
0.767082
0.767082
0.767082
0.767082
0.767082
0.767082
0.767082
0.767082
0.767082
0.767082
0.767082
0.767082
0.767082
0.767082
0.767082
0.767082
0.767082
0.767082
0.767082
0.767082
0.767082
0.767082
0.767082
0.767082
0.755991900293
0.369642983298
0.000212948943259
3.28073017688e-05
1.54192825215e-05
1.14248366092e-05
1.00419570491e-05
9.29032496767e-06
8.72730041418e-06
8.22759944502e-06
7.76032442093e-06
7.33247998638e-06
6.93519264658e-06
6.56035607016e-06
6.21646247929e-06
5.8912512857e-06
5.59267474587e-06
5.31429606508e-06
5.05102021132e-06
4.81025890065e-06
4.58255187578e-06
4.37112753393e-06
4.1798766858e-06
4.00025966794e-06
3.83913674978e-06
3.68838628421e-06
3.55095366183e-06
3.43059763397e-06
3.31902057366e-06
3.21946914717e-06
3.13525521751e-06
3.05877392663e-06
2.9934708887e-06
2.93897558074e-06
2.89485985168e-06
2.86447314914e-06
2.84062499042e-06
2.82580574355e-06
0.767082
0.767082
0.767082
0.767082
0.767082
0.767082
0.767082
0.767082
0.767082
0.767082
0.767082
0.767082
0.767082
0.767082
0.767082
0.767082
0.767082
0.767082
0.767082
0.767082
0.767082
0.767082
0.767082
0.767082
0.767082
0.767082
0.767082
0.767082
0.767082
0.767082
0.767082
0.767082
0.75435842871
0.263838432265
0.000159099894657
3.19514471741e-05
1.66275163659e-05
1.29460406904e-05
1.14573312376e-05
1.06301473421e-05
9.97274714267e-06
9.38025656767e-06
8.83336539814e-06
8.32798050013e-06
7.8543871369e-06
7.42143000077e-06
7.02005442117e-06
6.6424821704e-06
6.29760277412e-06
5.97151320029e-06
5.67470868567e-06
5.3941005417e-06
5.13868547642e-06
4.89803911362e-06
4.68076211043e-06
4.47677449938e-06
4.29413200815e-06
4.12327002253e-06
3.96819350392e-06
3.83231717412e-06
3.70653715522e-06
3.5950555715e-06
3.50042422727e-06
3.41459119484e-06
3.34124722046e-06
3.279877699e-06
3.23398157409e-06
3.19587360167e-06
3.16854582376e-06
3.15145769207e-06
0.767082
0.767082
0.767082
0.767082
0.767082
0.767082
0.767082
0.767082
0.767082
0.767082
0.767082
0.767082
0.767082
0.767082
0.767082
0.767082
0.767082
0.767082
0.767082
0.767082
0.767082
0.767082
0.767082
0.767082
0.767082
0.767082
0.767082
0.767082
0.767082
0.767082
0.767082
0.767082
0.757501826833
0.149259310124
0.000123976620788
3.18278412567e-05
1.80771873783e-05
1.46220397407e-05
1.31168006955e-05
1.21746043586e-05
1.14040345981e-05
1.07004818117e-05
1.00540202407e-05
9.45242636959e-06
8.90381380849e-06
8.39813476607e-06
7.92466299952e-06
7.49211773884e-06
7.09255077877e-06
6.71691092549e-06
6.37533710933e-06
6.05470117268e-06
5.76336265369e-06
5.48994105279e-06
5.24352223218e-06
5.01240952133e-06
4.80600597955e-06
4.6134888844e-06
4.44323121929e-06
4.28543320907e-06
4.14386463523e-06
4.02259435447e-06
3.91162498034e-06
3.81529285211e-06
3.73283798202e-06
3.6679442307e-06
3.61183740103e-06
3.56835191833e-06
3.53716091042e-06
3.51780267754e-06
0.767082
0.767082
0.767082
0.767082
0.767082
0.767082
0.767082
0.767082
0.767082
0.767082
0.767082
0.767082
0.767082
0.767082
0.767082
0.767082
0.767082
0.767082
0.767082
0.767082
0.767082
0.767082
0.767082
0.767082
0.767082
0.767082
0.767082
0.767082
0.767082
0.767082
0.767082
0.767079002672
0.733932913083
0.0427630291138
0.000100501013318
3.16398151605e-05
2.00708676786e-05
1.6629600286e-05
1.50300088686e-05
1.39491047496e-05
1.30329385641e-05
1.2199733262e-05
1.14288135732e-05
1.07306417774e-05
1.00879568605e-05
9.49957379525e-06
8.9496650394e-06
8.44975298379e-06
7.98954487142e-06
7.5574894656e-06
7.16522441608e-06
6.79776779162e-06
6.46599615789e-06
6.15479621493e-06
5.87471774445e-06
5.6132662915e-06
5.38036431205e-06
5.16269546067e-06
4.97126386131e-06
4.79382773644e-06
4.63482986506e-06
4.4986444147e-06
4.37416600569e-06
4.26576359777e-06
4.17796601099e-06
4.10019759383e-06
4.03701107367e-06
3.98786471069e-06
3.95243616873e-06
3.92990407894e-06
0.767082
0.767082
0.767082
0.767082
0.767082
0.767082
0.767082
0.767082
0.767082
0.767082
0.767082
0.767082
0.767082
0.767082
0.767082
0.767082
0.767082
0.767082
0.767082
0.767082
0.767082
0.767082
0.767082
0.767082
0.767082
0.767082
0.767082
0.767082
0.767082
0.767082
0.767082
0.766921266895
0.651814190104
0.00348492016431
8.44006272649e-05
3.25151195858e-05
2.21552090367e-05
1.89032142268e-05
1.72362661788e-05
1.59770387677e-05
1.48853097075e-05
1.38965939913e-05
1.29975671311e-05
1.21766561372e-05
1.14276863566e-05
1.07391645869e-05
1.01020348592e-05
9.5241474496e-06
8.99352629667e-06
8.49903494773e-06
8.05082381766e-06
7.63896281078e-06
7.25412941844e-06
6.90745015058e-06
6.58387731264e-06
6.29451898906e-06
6.02443756779e-06
5.77972750196e-06
5.5635017319e-06
5.36396763175e-06
5.19179761064e-06
5.03287820721e-06
4.89349618061e-06
4.77794239792e-06
4.6732834077e-06
4.58578982168e-06
4.51413262255e-06
4.45841022928e-06
4.42246746049e-06
4.3963882464e-06
0.767082
0.767082
0.767082
0.767082
0.767082
0.767082
0.767082
0.767082
0.767082
0.767082
0.767082
0.767082
0.767082
0.767082
0.767082
0.767082
0.767082
0.767082
0.767082
0.767082
0.767082
0.767082
0.767082
0.767082
0.767082
0.767082
0.767082
0.767082
0.767082
0.767082
0.767082
0.762426455823
0.535276990746
0.000912470124299
7.40250546692e-05
3.33970670998e-05
2.49141909321e-05
2.16279230787e-05
1.97316793584e-05
1.82763590561e-05
1.69906823741e-05
1.58272136122e-05
1.4766925944e-05
1.38078942451e-05
1.29341700818e-05
1.21347989944e-05
1.13964514275e-05
1.07305759869e-05
1.01190959889e-05
9.55281244552e-06
9.04147124371e-06
8.57310948306e-06
8.13633579698e-06
7.74362452108e-06
7.37806145796e-06
7.05137573276e-06
6.74709585051e-06
6.47870543759e-06
6.22941442911e-06
6.0118388535e-06
5.81083555363e-06
5.63328544826e-06
5.48303538182e-06
5.34561072066e-06
5.22803704011e-06
5.12894926597e-06
5.05471041438e-06
4.99055579345e-06
4.94350167861e-06
4.91317858164e-06
0.767082
0.767082
0.767082
0.767082
0.767082
0.767082
0.767082
0.767082
0.767082
0.767082
0.767082
0.767082
0.767082
0.767082
0.767082
0.767082
0.767082
0.767082
0.767082
0.767082
0.767082
0.767082
0.767082
0.767082
0.767082
0.767082
0.767082
0.767082
0.767082
0.767082
0.767082
0.755686821758
0.396142638388
0.000421715600555
6.68023650573e-05
3.55390773931e-05
2.80549946235e-05
2.47105640294e-05
2.25974380004e-05
2.08868413928e-05
1.93655159427e-05
1.7997060152e-05
1.67620113273e-05
1.56418000954e-05
1.46235762288e-05
1.37000550735e-05
1.28482701323e-05
1.20805430181e-05
1.13814160691e-05
1.07419045443e-05
1.01489362223e-05
9.61639351791e-06
9.12083679565e-06
8.67706325258e-06
8.27317843972e-06
7.89721754736e-06
7.56354682368e-06
7.25333812432e-06
6.9740291196e-06
6.72967426991e-06
6.50486241412e-06
6.31293244077e-06
6.13665449707e-06
5.98321192679e-06
5.85145077038e-06
5.74764471351e-06
5.6562151502e-06
5.5833443805e-06
5.52908445049e-06
5.49365311998e-06
0.767082
0.767082
0.767082
0.767082
0.767082
0.767082
0.767082
0.767082
0.767082
0.767082
0.767082
0.767082
0.767082
0.767082
0.767082
0.767082
0.767082
0.767082
0.767082
0.767082
0.767082
0.767082
0.767082
0.767082
0.767082
0.767082
0.767082
0.767082
0.767082
0.767082
0.767082
0.755410702111
0.23971645339
0.00025465705596
6.34062115143e-05
3.87412647239e-05
3.15445401226e-05
2.82597261216e-05
2.58824484602e-05
2.38506799365e-05