/*--------------------------------*- C++ -*----------------------------------*\
| =========                 |                                                 |
| \\      /  F ield         | foam-extend: Open Source CFD                    |
|  \\    /   O peration     | Version:     4.1                                |
|   \\  /    A nd           | Web:         http://www.foam-extend.org         |
|    \\/     M anipulation  |                                                 |
\*---------------------------------------------------------------------------*/
FoamFile
{
    version     2.0;
    format      ascii;
    class       volScalarField;
    location    "0.0002";
    object      N2Plus;
}
// * * * * * * * * * * * * * * * * * * * * * * * * * * * * * * * * * * * * * //

dimensions      [0 0 0 0 0 0 0];

internalField   nonuniform List<scalar> 
8400
(
7.21720706455e-185
7.2172070646e-185
7.21720706465e-185
7.2172070647e-185
7.21720706475e-185
7.21720706479e-185
7.21720706484e-185
7.21720706488e-185
7.21720706492e-185
7.21720706497e-185
7.21720706501e-185
7.21720706505e-185
7.21720706509e-185
7.21720706513e-185
7.21720706517e-185
7.21720706521e-185
7.21720706525e-185
7.21720706528e-185
7.21720706532e-185
7.21720706536e-185
7.21720706539e-185
7.21720706542e-185
7.21720706546e-185
7.21720706549e-185
7.21720706552e-185
7.21720706556e-185
7.21720706559e-185
7.21720706562e-185
7.21720706579e-185
7.21720707557e-185
7.21720776294e-185
7.217253606e-185
7.22031167204e-185
7.30979325565e-185
4.51503629608e-71
8.36004603956e-15
2.47622468856e-05
1.61380042751e-05
1.01520110513e-05
7.71847751288e-06
6.90869623008e-06
6.60824227575e-06
6.47554015446e-06
6.37897642751e-06
6.29607039962e-06
6.21586510832e-06
6.13943009159e-06
6.05924809823e-06
5.97784186704e-06
5.89490916724e-06
5.81368124533e-06
5.72787968851e-06
5.64071808089e-06
5.55244122534e-06
5.46358953745e-06
5.37743882178e-06
5.28858319287e-06
5.20084075422e-06
5.11475766004e-06
5.03163333399e-06
4.95529926328e-06
4.8803573409e-06
4.81069374328e-06
4.74775797848e-06
4.69209924421e-06
4.64441036113e-06
4.60529080027e-06
4.57560603188e-06
4.55551712384e-06
4.54065111193e-06
7.21720705704e-185
7.21720705706e-185
7.21720705708e-185
7.21720705709e-185
7.21720705711e-185
7.21720705713e-185
7.21720705715e-185
7.21720705717e-185
7.21720705718e-185
7.2172070572e-185
7.21720705722e-185
7.21720705723e-185
7.21720705725e-185
7.21720705726e-185
7.21720705728e-185
7.2172070573e-185
7.21720705731e-185
7.21720705733e-185
7.21720705734e-185
7.21720705736e-185
7.21720705737e-185
7.21720705738e-185
7.2172070574e-185
7.21720705741e-185
7.21720705743e-185
7.21720705744e-185
7.21720705745e-185
7.21720705748e-185
7.21720705863e-185
7.21720713692e-185
7.2172125037e-185
7.21755451241e-185
7.2401085464e-185
7.5930776283e-185
8.91621469468e-28
1.10079283412e-06
2.12885070443e-05
1.24814035681e-05
8.43636882972e-06
6.9294252547e-06
6.48194399985e-06
6.31942207023e-06
6.23574499856e-06
6.16801694549e-06
6.10381901482e-06
6.03639148827e-06
5.96921723083e-06
5.89588591424e-06
5.81991623797e-06
5.74141135547e-06
5.66062349663e-06
5.57799775569e-06
5.49357982281e-06
5.40817085417e-06
5.32207092522e-06
5.23895643277e-06
5.15330114744e-06
5.06927285175e-06
4.98748909763e-06
4.90897103851e-06
4.83424037047e-06
4.76431925707e-06
4.70010252626e-06
4.64505089935e-06
4.59418257327e-06
4.55100204188e-06
4.51576693125e-06
4.48896957739e-06
4.47087872396e-06
4.45836689131e-06
7.21720705466e-185
7.21720705467e-185
7.21720705468e-185
7.21720705469e-185
7.2172070547e-185
7.21720705471e-185
7.21720705472e-185
7.21720705473e-185
7.21720705474e-185
7.21720705475e-185
7.21720705476e-185
7.21720705477e-185
7.21720705478e-185
7.21720705479e-185
7.2172070548e-185
7.21720705481e-185
7.21720705482e-185
7.21720705483e-185
7.21720705484e-185
7.21720705485e-185
7.21720705485e-185
7.21720705486e-185
7.21720705487e-185
7.21720705488e-185
7.21720705489e-185
7.21720705489e-185
7.2172070549e-185
7.21720705498e-185
7.21720705994e-185
7.21720739668e-185
7.21723056991e-185
7.21881962235e-185
7.28569718299e-185
2.2242463871e-71
5.66695891639e-17
1.55679224506e-05
1.70399524342e-05
1.03730146919e-05
7.58076484902e-06
6.61723118367e-06
6.32979568448e-06
6.20782198641e-06
6.14341366357e-06
6.08014806498e-06
6.01843736635e-06
5.9539215667e-06
5.88909018216e-06
5.81802149587e-06
5.74400220097e-06
5.66724896516e-06
5.58840307904e-06
5.50743672414e-06
5.42515870064e-06
5.34204769135e-06
5.25821069804e-06
5.17795026766e-06
5.09573149559e-06
5.01522857832e-06
4.937603919e-06
4.86316370331e-06
4.79261790247e-06
4.72704159982e-06
4.66695407577e-06
4.61600294003e-06
4.56895181729e-06
4.52909015929e-06
4.49670402971e-06
4.47208178906e-06
4.45548407482e-06
4.44453680027e-06
7.21720705358e-185
7.21720705359e-185
7.2172070536e-185
7.2172070536e-185
7.21720705361e-185
7.21720705362e-185
7.21720705363e-185
7.21720705363e-185
7.21720705364e-185
7.21720705365e-185
7.21720705366e-185
7.21720705366e-185
7.21720705367e-185
7.21720705368e-185
7.21720705368e-185
7.21720705369e-185
7.21720705369e-185
7.2172070537e-185
7.21720705371e-185
7.21720705371e-185
7.21720705372e-185
7.21720705372e-185
7.21720705373e-185
7.21720705374e-185
7.21720705374e-185
7.21720705375e-185
7.21720705376e-185
7.21720705401e-185
7.21720707143e-185
7.21720828603e-185
7.21728751187e-185
7.22257234832e-185
7.34980256597e-185
4.84095156657e-49
1.48064496461e-09
2.67507447017e-05
1.47045791063e-05
9.3199621956e-06
7.21867695324e-06
6.54399035708e-06
6.31908166415e-06
6.22331126862e-06
6.15576235113e-06
6.08827513825e-06
6.02578931967e-06
5.95799446573e-06
5.88734595308e-06
5.814093549e-06
5.73821565231e-06
5.65998521552e-06
5.57994922452e-06
5.49814950096e-06
5.41532822708e-06
5.33199850602e-06
5.25163853644e-06
5.1686564504e-06
5.08742163687e-06
5.00822024243e-06
4.93212051836e-06
4.85951765003e-06
4.79089294255e-06
4.73038519267e-06
4.67216900589e-06
4.62029383652e-06
4.5750720257e-06
4.53691906498e-06
4.50596615276e-06
4.48253622969e-06
4.46679288113e-06
4.45642688419e-06
7.21720705299e-185
7.21720705299e-185
7.217207053e-185
7.21720705301e-185
7.21720705301e-185
7.21720705302e-185
7.21720705302e-185
7.21720705303e-185
7.21720705303e-185
7.21720705304e-185
7.21720705304e-185
7.21720705305e-185
7.21720705306e-185
7.21720705306e-185
7.21720705307e-185
7.21720705307e-185
7.21720705308e-185
7.21720705308e-185
7.21720705308e-185
7.21720705309e-185
7.21720705309e-185
7.2172070531e-185
7.2172070531e-185
7.21720705311e-185
7.21720705311e-185
7.21720705312e-185
7.21720705313e-185
7.21720705369e-185
7.21720709292e-185
7.2172098593e-185
7.2173926601e-185
7.22984933938e-185
7.46591225107e-185
1.00554411724e-35
2.34845214587e-07
2.29868808862e-05
1.33214621874e-05
8.77162694937e-06
7.09903364266e-06
6.57801120289e-06
6.38627501537e-06
6.30113148696e-06
6.23167134179e-06
6.16230193661e-06
6.09127633863e-06
6.0185887393e-06
5.94370996296e-06
5.86633678389e-06
5.78694312068e-06
5.70544478793e-06
5.62244985639e-06
5.53828315863e-06
5.45309443999e-06
5.37096050507e-06
5.28613830217e-06
5.20226812802e-06
5.12011842306e-06
5.04050000517e-06
4.96401488932e-06
4.89450981842e-06
4.82617335064e-06
4.76305623695e-06
4.70549494485e-06
4.65398910968e-06
4.609239144e-06
4.57144771195e-06
4.54100993021e-06
4.51797020732e-06
4.50248166061e-06
4.49243025099e-06
7.21720705261e-185
7.21720705262e-185
7.21720705262e-185
7.21720705263e-185
7.21720705263e-185
7.21720705264e-185
7.21720705264e-185
7.21720705265e-185
7.21720705265e-185
7.21720705266e-185
7.21720705266e-185
7.21720705267e-185
7.21720705267e-185
7.21720705267e-185
7.21720705268e-185
7.21720705268e-185
7.21720705269e-185
7.21720705269e-185
7.21720705269e-185
7.2172070527e-185
7.2172070527e-185
7.2172070527e-185
7.21720705271e-185
7.21720705271e-185
7.21720705272e-185
7.21720705272e-185
7.21720705274e-185
7.21720705375e-185
7.21720712464e-185
7.21721207637e-185
7.2175336484e-185
7.23910629849e-185
7.58625715662e-185
6.40771641474e-28
1.09531477638e-06
2.13254726105e-05
1.25690822672e-05
8.56921592514e-06
7.1098246745e-06
6.67629032582e-06
6.51217188199e-06
6.42445773771e-06
6.35099581775e-06
6.27721907328e-06
6.20145985973e-06
6.12368920315e-06
6.04378489962e-06
5.96200845305e-06
5.87817923781e-06
5.79261150297e-06
5.70568226655e-06
5.617887501e-06
5.53285895037e-06
5.44479820249e-06
5.35727759563e-06
5.27139274918e-06
5.18745688091e-06
5.10617730258e-06
5.03153604755e-06
4.9577043661e-06
4.88859719529e-06
4.82455343975e-06
4.76636263424e-06
4.71461359682e-06
4.66952533356e-06
4.63143970701e-06
4.60076397478e-06
4.58066072376e-06
4.56492456972e-06
4.55172884161e-06
7.21720705236e-185
7.21720705236e-185
7.21720705237e-185
7.21720705237e-185
7.21720705238e-185
7.21720705238e-185
7.21720705238e-185
7.21720705239e-185
7.21720705239e-185
7.21720705239e-185
7.2172070524e-185
7.2172070524e-185
7.21720705241e-185
7.21720705241e-185
7.21720705241e-185
7.21720705242e-185
7.21720705242e-185
7.21720705242e-185
7.21720705243e-185
7.21720705243e-185
7.21720705243e-185
7.21720705244e-185
7.21720705244e-185
7.21720705244e-185
7.21720705245e-185
7.21720705245e-185
7.21720705247e-185
7.21720705402e-185
7.21720716145e-185
7.21721457643e-185
7.21768905899e-185
7.2488076379e-185
7.70306616125e-185
5.93256373412e-24
2.55479020649e-06
2.02147201342e-05
1.21209557473e-05
8.47993536444e-06
7.2428293345e-06
6.82638008057e-06
6.6806530799e-06
6.59062038162e-06
6.51210609835e-06
6.43241990233e-06
6.35083881069e-06
6.26716068217e-06
6.18155546082e-06
6.09415988494e-06
6.00518715679e-06
5.91491337757e-06
5.82656294656e-06
5.73452274617e-06
5.64247296887e-06
5.55067610136e-06
5.46014955946e-06
5.37112320716e-06
5.28451396644e-06
5.20392294433e-06
5.12398364371e-06
5.04837113808e-06
4.97740130447e-06
4.9121044535e-06
4.85269565447e-06
4.799736362e-06
4.75686954072e-06
4.71809638002e-06
4.68677077739e-06
4.66308480018e-06
4.647165939e-06
4.63693127707e-06
7.21720705217e-185
7.21720705218e-185
7.21720705218e-185
7.21720705218e-185
7.21720705219e-185
7.21720705219e-185
7.21720705219e-185
7.2172070522e-185
7.2172070522e-185
7.2172070522e-185
7.21720705221e-185
7.21720705221e-185
7.21720705221e-185
7.21720705222e-185
7.21720705222e-185
7.21720705222e-185
7.21720705223e-185
7.21720705223e-185
7.21720705223e-185
7.21720705223e-185
7.21720705224e-185
7.21720705224e-185
7.21720705224e-185
7.21720705225e-185
7.21720705225e-185
7.21720705225e-185
7.21720705228e-185
7.21720705441e-185
7.21720720031e-185
7.21721712307e-185
7.21784232532e-185
7.25785302966e-185
7.81035645314e-185
9.49808052526e-21
4.4353453409e-06
1.94832252619e-05
1.18960154205e-05
8.56676426415e-06
7.3734314806e-06
7.03073475787e-06
6.89118280872e-06
6.79678763468e-06
6.71119274722e-06
6.62377462032e-06
6.53513451894e-06
6.44452421123e-06
6.35276581451e-06
6.25939725479e-06
6.16446973614e-06
6.07188625142e-06
5.97512045122e-06
5.87817795423e-06
5.78126307106e-06
5.68537142721e-06
5.59073892562e-06
5.50142657215e-06
5.41132558927e-06
5.32463279416e-06
5.24194912168e-06
5.16352726952e-06
5.09054890979e-06
5.02323227313e-06
4.96517309455e-06
4.91072766557e-06
4.86346586097e-06
4.8237067754e-06
4.79146026165e-06
4.76705568134e-06
4.75056571935e-06
4.74002375877e-06
7.21720705203e-185
7.21720705203e-185
7.21720705204e-185
7.21720705204e-185
7.21720705204e-185
7.21720705205e-185
7.21720705205e-185
7.21720705205e-185
7.21720705206e-185
7.21720705206e-185
7.21720705206e-185
7.21720705206e-185
7.21720705207e-185
7.21720705207e-185
7.21720705207e-185
7.21720705208e-185
7.21720705208e-185
7.21720705208e-185
7.21720705208e-185
7.21720705209e-185
7.21720705209e-185
7.21720705209e-185
7.21720705209e-185
7.2172070521e-185
7.2172070521e-185
7.2172070521e-185
7.21720705214e-185
7.21720705485e-185
7.21720723895e-185
7.21721959043e-185
7.21798619944e-185
7.26587330775e-185
4.05647831795e-72
2.15331481205e-19
6.72156990957e-06
1.90285256228e-05
1.17727424979e-05
8.67585089965e-06
7.61562009122e-06
7.27585320769e-06
7.13257185861e-06
7.03507373473e-06
6.94299821385e-06
6.84924327554e-06
6.75354393698e-06
6.65599201933e-06
6.55668994736e-06
6.45606735843e-06
6.35779691528e-06
6.25555800829e-06
6.15271265061e-06
6.05020248281e-06
5.9479615457e-06
5.84690721512e-06
5.75080883542e-06
5.65385255509e-06
5.55979150725e-06
5.46956355623e-06
5.3833088765e-06
5.30203639025e-06
5.2294390883e-06
5.15945534012e-06
5.09612629668e-06
5.03990015143e-06
4.99103663017e-06
4.94978271673e-06
4.91637722558e-06
4.89117617123e-06
4.87419362602e-06
4.86348076396e-06
7.21720705192e-185
7.21720705192e-185
7.21720705193e-185
7.21720705193e-185
7.21720705193e-185
7.21720705193e-185
7.21720705194e-185
7.21720705194e-185
7.21720705194e-185
7.21720705195e-185
7.21720705195e-185
7.21720705195e-185
7.21720705195e-185
7.21720705196e-185
7.21720705196e-185
7.21720705196e-185
7.21720705196e-185
7.21720705196e-185
7.21720705197e-185
7.21720705197e-185
7.21720705197e-185
7.21720705197e-185
7.21720705198e-185
7.21720705198e-185
7.21720705198e-185
7.21720705198e-185
7.21720705203e-185
7.21720705533e-185
7.21720727755e-185
7.2172219815e-185
7.21813442417e-185
7.27276619632e-185
9.04276278524e-72
1.61282072492e-18
8.96757022809e-06
1.86163131592e-05
1.17415921074e-05
8.81526838904e-06
7.90333629692e-06
7.571004009e-06
7.42386283329e-06
7.31807007412e-06
7.21541324003e-06
7.11182708284e-06
7.00670201678e-06
6.90022170305e-06
6.79240965024e-06
6.68710815951e-06
6.57771591451e-06
6.4681949085e-06
6.35851630841e-06
6.24939210589e-06
6.14086649324e-06
6.0372649616e-06
5.93263312409e-06
5.83065620435e-06
5.73189018644e-06
5.63740710387e-06
5.55041517718e-06
5.46545425283e-06
5.38622141923e-06
5.31359216341e-06
5.24781513115e-06
5.18933353031e-06
5.13842866353e-06
5.09884841849e-06
5.06420659063e-06
5.03792849344e-06
5.02012731491e-06
5.00918164136e-06
7.21720705183e-185
7.21720705183e-185
7.21720705184e-185
7.21720705184e-185
7.21720705184e-185
7.21720705184e-185
7.21720705185e-185
7.21720705185e-185
7.21720705185e-185
7.21720705185e-185
7.21720705186e-185
7.21720705186e-185
7.21720705186e-185
7.21720705186e-185
7.21720705186e-185
7.21720705187e-185
7.21720705187e-185
7.21720705187e-185
7.21720705187e-185
7.21720705188e-185
7.21720705188e-185
7.21720705188e-185
7.21720705188e-185
7.21720705188e-185
7.21720705189e-185
7.21720705189e-185
7.21720705195e-185
7.21720705589e-185
7.21720731837e-185
7.21722467477e-185
7.21836585394e-185
7.27928053691e-185
1.47993645802e-71
8.85605545433e-18
1.13077149902e-05
1.84068196579e-05
1.18088045864e-05
9.0334467485e-06
8.20561369389e-06
7.91986748548e-06
7.75735973146e-06
7.63567651202e-06
7.52148473912e-06
7.40736508652e-06
7.29237867211e-06
7.17613217098e-06
7.06261014397e-06
6.94492568061e-06
6.82718920675e-06
6.70921533476e-06
6.59162722288e-06
6.47840815619e-06
6.36307136933e-06
6.24937894367e-06
6.13871916268e-06
6.0309597313e-06
5.93056187635e-06
5.83065139531e-06
5.73609498412e-06
5.64700867502e-06
5.56420849935e-06
5.48832295334e-06
5.4228379153e-06
5.36180195441e-06
5.30862064782e-06
5.26379720382e-06
5.22769962943e-06
5.2003318208e-06
5.18187345246e-06
5.17056553095e-06
7.21720705176e-185
7.21720705176e-185
7.21720705176e-185
7.21720705176e-185
7.21720705177e-185
7.21720705177e-185
7.21720705177e-185
7.21720705177e-185
7.21720705178e-185
7.21720705178e-185
7.21720705178e-185
7.21720705178e-185
7.21720705178e-185
7.21720705179e-185
7.21720705179e-185
7.21720705179e-185
7.21720705179e-185
7.21720705179e-185
7.2172070518e-185
7.2172070518e-185
7.2172070518e-185
7.2172070518e-185
7.2172070518e-185
7.21720705181e-185
7.21720705181e-185
7.21720705181e-185
7.21720705188e-185
7.21720705655e-185
7.21720737034e-185
7.21722866006e-185
7.21868286122e-185
7.28612268822e-185
2.05155668736e-71
3.77531137116e-17
1.37901423452e-05
1.81759076072e-05
1.18906098761e-05
9.33708436897e-06
8.57506589406e-06
8.27876635734e-06
8.12604182043e-06
7.99393073081e-06
7.86617539293e-06
7.7399959178e-06
7.61308299243e-06
7.48582319495e-06
7.36152838909e-06
7.23335850451e-06
7.1057464016e-06
6.97843314403e-06
6.85566921421e-06
6.73045866723e-06
6.6072395742e-06
6.48627359035e-06
6.3684992445e-06
6.25783870017e-06
6.14805652354e-06
6.04283888601e-06
5.94320226898e-06
5.85312688567e-06
5.76619650651e-06
5.68632875763e-06
5.61435957205e-06
5.55053640614e-06
5.49491892616e-06
5.44802855184e-06
5.41016663242e-06
5.38494330864e-06
5.36544198226e-06
5.35365843345e-06
7.2172070517e-185
7.2172070517e-185
7.2172070517e-185
7.2172070517e-185
7.2172070517e-185
7.21720705171e-185
7.21720705171e-185
7.21720705171e-185
7.21720705171e-185
7.21720705171e-185
7.21720705172e-185
7.21720705172e-185
7.21720705172e-185
7.21720705172e-185
7.21720705172e-185
7.21720705173e-185
7.21720705173e-185
7.21720705173e-185
7.21720705173e-185
7.21720705173e-185
7.21720705174e-185
7.21720705174e-185
7.21720705174e-185
7.21720705174e-185
7.21720705174e-185
7.21720705174e-185
7.21720705183e-185
7.21720705743e-185
7.21720744266e-185
7.21723413289e-185
7.21907874283e-185
7.29373393474e-185
2.68785856213e-71
1.71226114212e-16
1.65193205689e-05
1.80138323505e-05
1.20709786547e-05
9.64742861144e-06
8.95970207546e-06
8.70364313847e-06
8.53674802517e-06
8.39004982223e-06
8.2485073238e-06
8.10811650975e-06
7.96827982694e-06
7.83168289521e-06
7.69143880198e-06
7.55211483756e-06
7.41331459951e-06
7.27924926292e-06
7.14304996901e-06
7.00872786778e-06
6.87661141686e-06
6.75104890252e-06
6.62573667028e-06
6.50436558023e-06
6.38802673322e-06
6.28041374048e-06
6.17513092751e-06
6.07647993697e-06
5.98481049557e-06
5.90109275602e-06
5.82554251486e-06
5.76186541594e-06
5.70357862948e-06
5.65448903495e-06
5.61476464596e-06
5.58448773904e-06
5.56387023972e-06
5.55153042673e-06
7.21720705164e-185
7.21720705165e-185
7.21720705165e-185
7.21720705165e-185
7.21720705165e-185
7.21720705165e-185
7.21720705166e-185
7.21720705166e-185
7.21720705166e-185
7.21720705166e-185
7.21720705166e-185
7.21720705167e-185
7.21720705167e-185
7.21720705167e-185
7.21720705167e-185
7.21720705167e-185
7.21720705167e-185
7.21720705168e-185
7.21720705168e-185
7.21720705168e-185
7.21720705168e-185
7.21720705168e-185
7.21720705168e-185
7.21720705169e-185
7.21720705169e-185
7.21720705169e-185
7.21720705179e-185
7.21720705874e-185
7.21720754904e-185
7.21724160238e-185
7.21958022112e-185
7.30289490088e-185
3.44691938955e-71
8.79468610187e-16
1.98458927601e-05
1.78979543604e-05
1.22512451776e-05
1.00357097497e-05
9.39917308673e-06
9.15905227737e-06
8.98434453062e-06
8.82494894538e-06
8.66763086682e-06
8.51163678871e-06
8.36008121325e-06
8.20599726399e-06
8.0525322512e-06
7.90029061036e-06
7.75338107655e-06
7.6039965573e-06
7.4572849555e-06
7.31266980209e-06
7.17478931933e-06
7.03688661174e-06
6.90301896571e-06
6.77408667015e-06
6.65390678579e-06
6.53626821279e-06
6.42469492325e-06
6.32076088484e-06
6.22783636513e-06
6.13949433888e-06
6.0597225609e-06
5.98904943205e-06
5.92786305187e-06
5.87625813714e-06
5.83435315914e-06
5.80632593437e-06
5.78455090523e-06
5.77151575097e-06
7.2172070516e-185
7.2172070516e-185
7.2172070516e-185
7.2172070516e-185
7.21720705161e-185
7.21720705161e-185
7.21720705161e-185
7.21720705161e-185
7.21720705161e-185
7.21720705162e-185
7.21720705162e-185
7.21720705162e-185
7.21720705162e-185
7.21720705162e-185
7.21720705162e-185
7.21720705163e-185
7.21720705163e-185
7.21720705163e-185
7.21720705163e-185
7.21720705163e-185
7.21720705163e-185
7.21720705163e-185
7.21720705164e-185
7.21720705164e-185
7.21720705164e-185
7.21720705164e-185
7.21720705177e-185
7.21720706075e-185
7.21720770377e-185
7.21725184571e-185
7.22025036021e-185
7.31399535565e-185
4.4269267587e-71
7.28495129147e-15
2.30719839477e-05
1.77892333593e-05
1.24691885303e-05
1.04543137643e-05
9.89095464346e-06
9.66042394804e-06
9.47651450446e-06
9.2993739814e-06
9.12378943705e-06
8.95431385751e-06
8.78294758517e-06
8.61318202453e-06
8.44536252864e-06
8.28292972613e-06
8.11868762423e-06
7.95729441889e-06
7.80207509528e-06
7.64656324794e-06
7.49467105813e-06
7.34694746158e-06
7.2076560342e-06
7.07026825039e-06
6.93857809714e-06
6.8136819906e-06
6.69964982849e-06
6.5893147114e-06
6.48763706289e-06
6.39433675263e-06
6.31422294589e-06
6.23963282689e-06
6.17483451341e-06
6.12051060972e-06
6.07653737905e-06
6.04307200115e-06
6.02005959268e-06
6.00636363119e-06
7.21720705156e-185
7.21720705156e-185
7.21720705156e-185
7.21720705157e-185
7.21720705157e-185
7.21720705157e-185
7.21720705157e-185
7.21720705157e-185
7.21720705157e-185
7.21720705158e-185
7.21720705158e-185
7.21720705158e-185
7.21720705158e-185
7.21720705158e-185
7.21720705158e-185
7.21720705158e-185
7.21720705159e-185
7.21720705159e-185
7.21720705159e-185
7.21720705159e-185
7.21720705159e-185
7.21720705159e-185
7.21720705159e-185
7.2172070516e-185
7.2172070516e-185
7.2172070516e-185
7.21720705177e-185
7.21720706367e-185
7.21720791306e-185
7.21726517345e-185
7.22111830425e-185
7.32856209528e-185
5.62077797463e-71
2.56475331697e-13
2.62343400339e-05
1.77146657115e-05
1.27651515891e-05
1.09187470775e-05
1.04167079803e-05
1.02031762464e-05
1.00098658306e-05
9.81356562128e-06
9.62169750733e-06
9.42936877433e-06
9.23977566331e-06
9.05312376609e-06
8.87297159223e-06
8.69185468477e-06
8.5134490615e-06
8.34214537377e-06
8.1704387478e-06
8.0028170994e-06
7.84345800278e-06
7.68525569582e-06
7.53228905857e-06
7.38583118785e-06
7.24945475114e-06
7.11689320456e-06
6.99196456981e-06
6.87517663025e-06
6.77118157479e-06
6.67287703084e-06
6.58439929653e-06
6.50591434339e-06
6.43766030609e-06
6.38422437741e-06
6.33770596962e-06
6.30230803465e-06
6.27784615759e-06
6.26349104556e-06
7.21720705153e-185
7.21720705153e-185
7.21720705153e-185
7.21720705153e-185
7.21720705153e-185
7.21720705153e-185
7.21720705154e-185
7.21720705154e-185
7.21720705154e-185
7.21720705154e-185
7.21720705154e-185
7.21720705154e-185
7.21720705155e-185
7.21720705155e-185
7.21720705155e-185
7.21720705155e-185
7.21720705155e-185
7.21720705155e-185
7.21720705155e-185
7.21720705156e-185
7.21720705156e-185
7.21720705156e-185
7.21720705156e-185
7.21720705156e-185
7.21720705156e-185
7.21720705157e-185
7.21720705179e-185
7.21720706796e-185
7.21720820922e-185
7.21728360881e-185
7.22229857928e-185
7.34832436252e-185
7.31756335286e-71
7.48708967058e-11
2.85154263881e-05
1.75796290338e-05
1.29955394919e-05
1.14333033377e-05
1.10393367037e-05
1.08119284484e-05
1.05909650572e-05
1.03692142754e-05
1.0154523792e-05
9.94129267399e-06
9.73214064054e-06
9.53042559312e-06
9.32862094622e-06
9.1306315212e-06
8.94069813381e-06
8.75088693e-06
8.56557317721e-06
8.38866880503e-06
8.2135489127e-06
8.04395251997e-06
7.88467858454e-06
7.72804900843e-06
7.57918205081e-06
7.44179971987e-06
7.30935157152e-06
7.18594807148e-06
7.07185622322e-06
6.97204705633e-06
6.87835797116e-06
6.79531509388e-06
6.72347462557e-06
6.66298439932e-06
6.61396499562e-06
6.5764487515e-06
6.55056614812e-06
6.53523693461e-06
7.2172070515e-185
7.2172070515e-185
7.2172070515e-185
7.2172070515e-185
7.2172070515e-185
7.2172070515e-185
7.21720705151e-185
7.21720705151e-185
7.21720705151e-185
7.21720705151e-185
7.21720705151e-185
7.21720705151e-185
7.21720705151e-185
7.21720705152e-185
7.21720705152e-185
7.21720705152e-185
7.21720705152e-185
7.21720705152e-185
7.21720705152e-185
7.21720705152e-185
7.21720705152e-185
7.21720705153e-185
7.21720705153e-185
7.21720705153e-185
7.21720705153e-185
7.21720705154e-185
7.21720705186e-185
7.21720707453e-185
7.2172086433e-185
7.21731007189e-185
7.22398780467e-185
7.37819825032e-185
3.21537505075e-47
4.31599982214e-09
2.83621821563e-05
1.75282729263e-05
1.33589954589e-05
1.19814236709e-05
1.16905952689e-05
1.14511737884e-05
1.12064665431e-05
1.09642841739e-05
1.07232370961e-05
1.0488137296e-05
1.02616172417e-05
1.00363361302e-05
9.81968169921e-06
9.60369525273e-06
9.39290084917e-06
9.19130924524e-06
8.99084285732e-06
8.79651434789e-06
8.61227131988e-06
8.43059632378e-06
8.25609338425e-06
8.09347030445e-06
7.93452572587e-06
7.78476032077e-06
7.64411401746e-06
7.51751432615e-06
7.39651121231e-06
7.28682808218e-06
7.18798207768e-06
7.10466193115e-06
7.02864103278e-06
6.96463385096e-06
6.91280648245e-06
6.87304956641e-06
6.84545014195e-06
6.82918315175e-06
7.21720705147e-185
7.21720705147e-185
7.21720705147e-185
7.21720705147e-185
7.21720705147e-185
7.21720705148e-185
7.21720705148e-185
7.21720705148e-185
7.21720705148e-185
7.21720705148e-185
7.21720705148e-185
7.21720705148e-185
7.21720705149e-185
7.21720705149e-185
7.21720705149e-185
7.21720705149e-185
7.21720705149e-185
7.21720705149e-185
7.21720705149e-185
7.2172070515e-185
7.2172070515e-185
7.2172070515e-185
7.2172070515e-185
7.2172070515e-185
7.2172070515e-185
7.21720705151e-185
7.21720705197e-185
7.21720708403e-185
7.21720927119e-185
7.21734928954e-185
7.22662216787e-185
7.42524276571e-185
1.14762525578e-46
4.19371417063e-08
2.70845343247e-05
1.74962397088e-05
1.37691120594e-05
1.25932582676e-05
1.23481466435e-05
1.2134044877e-05
1.18702258148e-05
1.15983241214e-05
1.13309888456e-05
1.10750392857e-05
1.08215294211e-05
1.05782391257e-05
1.03371159313e-05
1.01023943336e-05
9.87729902629e-06
9.65476079787e-06
9.44279403085e-06
9.23355193886e-06
9.03156702699e-06
8.84118157917e-06
8.65449110396e-06
8.47666299107e-06
8.31218273567e-06
8.1527280329e-06
8.0037103057e-06
7.86533226696e-06
7.7419517649e-06
7.62568068996e-06
7.52145127355e-06
7.4290945185e-06
7.35327024692e-06
7.28554770037e-06
7.23074344821e-06
7.18854074458e-06
7.1590920664e-06
7.14161721308e-06
7.21720705144e-185
7.21720705145e-185
7.21720705145e-185
7.21720705145e-185
7.21720705145e-185
7.21720705145e-185
7.21720705145e-185
7.21720705145e-185
7.21720705146e-185
7.21720705146e-185
7.21720705146e-185
7.21720705146e-185
7.21720705146e-185
7.21720705146e-185
7.21720705146e-185
7.21720705147e-185
7.21720705147e-185
7.21720705147e-185
7.21720705147e-185
7.21720705147e-185
7.21720705147e-185
7.21720705147e-185
7.21720705147e-185
7.21720705147e-185
7.21720705148e-185
7.21720705149e-185
7.21720705217e-185
7.21720709846e-185
7.21721023725e-185
7.2174113346e-185
7.23067015431e-185
7.49018379422e-185
9.99257434252e-36
1.73495764783e-07
2.58575161207e-05
1.74993454611e-05
1.42039484565e-05
1.32786224112e-05
1.30791534317e-05
1.28595451066e-05
1.25703890322e-05
1.22702580809e-05
1.19797331812e-05
1.16934084408e-05
1.14190442809e-05
1.11483707792e-05
1.08850503794e-05
1.06335226239e-05
1.03852206982e-05
1.01488963513e-05
9.91574619381e-06
9.6952440242e-06
9.47877438843e-06
9.27050254261e-06
9.07613460355e-06
8.88646069391e-06
8.70696923007e-06
8.54225598672e-06
8.38439178619e-06
8.23756967286e-06
8.10278762601e-06
7.98451313831e-06
7.87425269696e-06
7.77675287355e-06
7.69236904652e-06
7.62559660563e-06
7.5674989529e-06
7.52269572549e-06
7.49111911512e-06
7.47239650752e-06
7.21720705142e-185
7.21720705142e-185
7.21720705143e-185
7.21720705143e-185
7.21720705143e-185
7.21720705143e-185
7.21720705143e-185
7.21720705143e-185
7.21720705143e-185
7.21720705144e-185
7.21720705144e-185
7.21720705144e-185
7.21720705144e-185
7.21720705144e-185
7.21720705144e-185
7.21720705144e-185
7.21720705144e-185
7.21720705145e-185
7.21720705145e-185
7.21720705145e-185
7.21720705145e-185
7.21720705145e-185
7.21720705145e-185
7.21720705145e-185
7.21720705145e-185
7.21720705147e-185
7.2172070525e-185
7.21720712222e-185
7.21721185035e-185
7.21751307061e-185
7.23725728693e-185
7.58420607817e-185
1.36680224266e-32
5.35175652529e-07
2.49398891272e-05
1.75486287506e-05
1.46511254955e-05
1.4024976797e-05
1.38915019927e-05
1.36336941728e-05
1.33122357229e-05
1.2980063285e-05
1.26590533726e-05
1.23444057116e-05
1.20431935496e-05
1.174797954e-05
1.14653271955e-05
1.11886781345e-05
1.09241677858e-05
1.06642702827e-05
1.0418076521e-05
1.01768293523e-05
9.94908040532e-06
9.72657317449e-06
9.51479294275e-06
9.31751936459e-06
9.1270511336e-06
8.94794126531e-06
8.78525076624e-06
8.62991361062e-06
8.48759382938e-06
8.36268107022e-06
8.24639281878e-06
8.14352315401e-06
8.05443786378e-06
7.97923403839e-06
7.92219142477e-06
7.87459278237e-06
7.84091570479e-06
7.82076818677e-06
7.2172070514e-185
7.2172070514e-185
7.21720705141e-185
7.21720705141e-185
7.21720705141e-185
7.21720705141e-185
7.21720705141e-185
7.21720705141e-185
7.21720705141e-185
7.21720705142e-185
7.21720705142e-185
7.21720705142e-185
7.21720705142e-185
7.21720705142e-185
7.21720705142e-185
7.21720705142e-185
7.21720705142e-185
7.21720705142e-185
7.21720705143e-185
7.21720705143e-185
7.21720705143e-185
7.21720705143e-185
7.21720705143e-185
7.21720705143e-185
7.21720705143e-185
7.21720705146e-185
7.21720705307e-185
7.21720716223e-185
7.2172145237e-185
7.2176797502e-185
7.24764428206e-185
7.71793041348e-185
2.35820567668e-24
1.34670294933e-06
2.42284829365e-05
1.76990439742e-05
1.52605486407e-05
1.48561503131e-05
1.47299171258e-05
1.44490235569e-05
1.40899965598e-05
1.37270225937e-05
1.33699875407e-05
1.30295716451e-05
1.26968978557e-05
1.23795631076e-05
1.20732679406e-05
1.17728915463e-05
1.1487837132e-05
1.12082246373e-05
1.09392792772e-05
1.0684998511e-05
1.04373700529e-05
1.02050668488e-05
9.9789695381e-06
9.7695737389e-06
9.56744956714e-06
9.3779600567e-06
9.20586347722e-06
9.04179135558e-06
8.89157507384e-06
8.75522517435e-06
8.63711220295e-06
8.52882817091e-06
8.43497847498e-06
8.35558504457e-06
8.29069950535e-06
8.24497421738e-06
8.20892525404e-06
8.18708862244e-06
7.21720705139e-185
7.21720705139e-185
7.21720705139e-185
7.21720705139e-185
7.21720705139e-185
7.21720705139e-185
7.21720705139e-185
7.21720705139e-185
7.2172070514e-185
7.2172070514e-185
7.2172070514e-185
7.2172070514e-185
7.2172070514e-185
7.2172070514e-185
7.2172070514e-185
7.2172070514e-185
7.21720705141e-185
7.21720705141e-185
7.21720705141e-185
7.21720705141e-185
7.21720705141e-185
7.21720705141e-185
7.21720705141e-185
7.21720705141e-185
7.21720705141e-185
7.21720705145e-185
7.21720705409e-185
7.21720723129e-185
7.2172190617e-185
7.21795414956e-185
7.26361852598e-185
2.64314904689e-73
9.37393151404e-21
3.1320104401e-06
2.35862785923e-05
1.78318881532e-05
1.59810697842e-05
1.57178248055e-05
1.56403520207e-05
1.53041943687e-05
1.49032661114e-05
1.45010715522e-05
1.41156629833e-05
1.37406055165e-05
1.3383332346e-05
1.30394101125e-05