/*--------------------------------*- C++ -*----------------------------------*\
| =========                 |                                                 |
| \\      /  F ield         | foam-extend: Open Source CFD                    |
|  \\    /   O peration     | Version:     4.1                                |
|   \\  /    A nd           | Web:         http://www.foam-extend.org         |
|    \\/     M anipulation  |                                                 |
\*---------------------------------------------------------------------------*/
FoamFile
{
    version     2.0;
    format      ascii;
    class       volScalarField;
    location    "0.0002";
    object      NO;
}
// * * * * * * * * * * * * * * * * * * * * * * * * * * * * * * * * * * * * * //

dimensions      [0 0 0 0 0 0 0];

internalField   nonuniform List<scalar> 
8400
(
2.19526275509e-21
2.1952627551e-21
2.19526275511e-21
2.19526275511e-21
2.19526275512e-21
2.19526275512e-21
2.19526275513e-21
2.19526275513e-21
2.19526275514e-21
2.19526275515e-21
2.19526275515e-21
2.19526275516e-21
2.19526275516e-21
2.19526275517e-21
2.19526275517e-21
2.19526275517e-21
2.19526275518e-21
2.19526275518e-21
2.19526275519e-21
2.19526275519e-21
2.1952627552e-21
2.1952627552e-21
2.19526275521e-21
2.19526275521e-21
2.19526275521e-21
2.19526275522e-21
2.19526275522e-21
2.19526275523e-21
2.19526275525e-21
2.19526275644e-21
2.19526284063e-21
2.1952684552e-21
2.19564298786e-21
2.20660212834e-21
1.15138484645e-08
0.0241795784689
0.000511955122153
3.80141760455e-06
1.15989972664e-06
6.13900124377e-07
4.62794192127e-07
4.11541811432e-07
3.92808258549e-07
3.82121005454e-07
3.73791432728e-07
3.65954068639e-07
3.58582668285e-07
3.50899756696e-07
3.43158270555e-07
3.35330429533e-07
3.27734480144e-07
3.19776923313e-07
3.11775154269e-07
3.03750833039e-07
2.95749529253e-07
2.88071034289e-07
2.80224039937e-07
2.72559323041e-07
2.65121740048e-07
2.58020255007e-07
2.51572381651e-07
2.45299389084e-07
2.39524171126e-07
2.34357673357e-07
2.29826186768e-07
2.25965720586e-07
2.22811659259e-07
2.2042974826e-07
2.18815229458e-07
2.17386548725e-07
2.19526275417e-21
2.19526275418e-21
2.19526275418e-21
2.19526275418e-21
2.19526275418e-21
2.19526275419e-21
2.19526275419e-21
2.19526275419e-21
2.19526275419e-21
2.19526275419e-21
2.1952627542e-21
2.1952627542e-21
2.1952627542e-21
2.1952627542e-21
2.1952627542e-21
2.19526275421e-21
2.19526275421e-21
2.19526275421e-21
2.19526275421e-21
2.19526275421e-21
2.19526275421e-21
2.19526275422e-21
2.19526275422e-21
2.19526275422e-21
2.19526275422e-21
2.19526275422e-21
2.19526275422e-21
2.19526275423e-21
2.19526275437e-21
2.19526276396e-21
2.19526342125e-21
2.19530530832e-21
2.19806758428e-21
2.24129701316e-21
0.00244824582232
0.0023686637063
1.13467136354e-05
1.91133865233e-06
7.6899519346e-07
4.83781982231e-07
4.03951097052e-07
3.77488103532e-07
3.66841242101e-07
3.59706954951e-07
3.53316993712e-07
3.46716898531e-07
3.40217853166e-07
3.33191222286e-07
3.2598658514e-07
3.18617613241e-07
3.11114819954e-07
3.03527683685e-07
2.95865455901e-07
2.88201154383e-07
2.80559435245e-07
2.73272510163e-07
2.65845678962e-07
2.58646896065e-07
2.51720549807e-07
2.45143051862e-07
2.38949173209e-07
2.33213139183e-07
2.27995947028e-07
2.2356870007e-07
2.19504867551e-07
2.1608632598e-07
2.1330099417e-07
2.11196429282e-07
2.09770689899e-07
2.0863289005e-07
2.19526275388e-21
2.19526275388e-21
2.19526275389e-21
2.19526275389e-21
2.19526275389e-21
2.19526275389e-21
2.19526275389e-21
2.19526275389e-21
2.19526275389e-21
2.19526275389e-21
2.1952627539e-21
2.1952627539e-21
2.1952627539e-21
2.1952627539e-21
2.1952627539e-21
2.1952627539e-21
2.1952627539e-21
2.1952627539e-21
2.1952627539e-21
2.19526275391e-21
2.19526275391e-21
2.19526275391e-21
2.19526275391e-21
2.19526275391e-21
2.19526275391e-21
2.19526275391e-21
2.19526275391e-21
2.19526275392e-21
2.19526275453e-21
2.19526279577e-21
2.19526563388e-21
2.19546025101e-21
2.2036509932e-21
5.52178482076e-09
0.0267807328314
0.00096332106313
4.56194681449e-06
1.234979477e-06
6.03422563093e-07
4.32432996736e-07
3.82565864894e-07
3.64830801161e-07
3.5736381199e-07
3.50943454483e-07
3.44878272576e-07
3.38627596439e-07
3.32411019212e-07
3.25661324161e-07
3.18705459611e-07
3.11568412223e-07
3.04316476396e-07
2.96953898824e-07
2.89558104277e-07
2.82171963225e-07
2.74798665764e-07
2.67822536333e-07
2.60758817057e-07
2.53926640925e-07
2.47412863635e-07
2.41229945977e-07
2.35425340201e-07
2.30078603875e-07
2.25222029673e-07
2.21154229575e-07
2.17421239922e-07
2.14274140731e-07
2.11736785905e-07
2.0980622589e-07
2.08501483182e-07
2.07530455469e-07
2.19526275375e-21
2.19526275375e-21
2.19526275375e-21
2.19526275375e-21
2.19526275375e-21
2.19526275376e-21
2.19526275376e-21
2.19526275376e-21
2.19526275376e-21
2.19526275376e-21
2.19526275376e-21
2.19526275376e-21
2.19526275376e-21
2.19526275376e-21
2.19526275376e-21
2.19526275376e-21
2.19526275376e-21
2.19526275377e-21
2.19526275377e-21
2.19526275377e-21
2.19526275377e-21
2.19526275377e-21
2.19526275377e-21
2.19526275377e-21
2.19526275377e-21
2.19526275377e-21
2.19526275377e-21
2.1952627538e-21
2.19526275594e-21
2.19526290469e-21
2.19527260778e-21
2.19591986124e-21
2.21150221655e-21
6.6421229766e-08
0.00634986128594
7.38863402449e-05
2.92885648578e-06
9.6637015143e-07
5.36061796522e-07
4.16710785115e-07
3.7907629384e-07
3.65930165863e-07
3.58585783801e-07
3.5182412057e-07
3.45705488417e-07
3.39146689653e-07
3.32383358834e-07
3.25443606293e-07
3.18329088153e-07
3.11071033798e-07
3.03725885258e-07
2.9630212093e-07
2.88869315322e-07
2.8147189015e-07
2.74417976575e-07
2.67209719036e-07
2.60241655227e-07
2.53528393574e-07
2.47149359908e-07
2.41123789582e-07
2.35478501913e-07
2.30547104628e-07
2.2584615618e-07
2.21694958837e-07
2.18099729497e-07
2.15091130464e-07
2.12656167332e-07
2.10824606665e-07
2.09592349913e-07
2.0867273997e-07
2.19526275368e-21
2.19526275368e-21
2.19526275368e-21
2.19526275368e-21
2.19526275368e-21
2.19526275368e-21
2.19526275368e-21
2.19526275368e-21
2.19526275368e-21
2.19526275368e-21
2.19526275369e-21
2.19526275369e-21
2.19526275369e-21
2.19526275369e-21
2.19526275369e-21
2.19526275369e-21
2.19526275369e-21
2.19526275369e-21
2.19526275369e-21
2.19526275369e-21
2.19526275369e-21
2.19526275369e-21
2.19526275369e-21
2.19526275369e-21
2.19526275369e-21
2.19526275369e-21
2.1952627537e-21
2.19526275376e-21
2.19526275857e-21
2.19526309738e-21
2.19528548567e-21
2.19681110125e-21
2.2257225991e-21
0.000141206663996
0.00310709551917
1.81185386207e-05
2.25029437464e-06
8.39877410283e-07
5.10101454173e-07
4.16203228511e-07
3.84832618845e-07
3.73618707858e-07
3.66225323787e-07
3.59266713207e-07
3.52275532074e-07
3.45204745199e-07
3.3799706698e-07
3.30624879812e-07
3.23141046585e-07
3.15540043493e-07
3.07884253761e-07
3.00204775215e-07
2.92521229886e-07
2.85199261124e-07
2.77717435055e-07
2.70403550056e-07
2.63321950957e-07
2.5653842374e-07
2.50093125899e-07
2.44299858177e-07
2.38653092879e-07
2.33484817489e-07
2.28808554438e-07
2.24662040284e-07
2.21087409979e-07
2.18079434373e-07
2.15679081437e-07
2.13863134635e-07
2.12641616053e-07
2.11753977898e-07
2.19526275363e-21
2.19526275363e-21
2.19526275363e-21
2.19526275363e-21
2.19526275363e-21
2.19526275364e-21
2.19526275364e-21
2.19526275364e-21
2.19526275364e-21
2.19526275364e-21
2.19526275364e-21
2.19526275364e-21
2.19526275364e-21
2.19526275364e-21
2.19526275364e-21
2.19526275364e-21
2.19526275364e-21
2.19526275364e-21
2.19526275364e-21
2.19526275364e-21
2.19526275364e-21
2.19526275364e-21
2.19526275364e-21
2.19526275364e-21
2.19526275364e-21
2.19526275365e-21
2.19526275365e-21
2.19526275377e-21
2.19526276245e-21
2.19526336891e-21
2.19530275303e-21
2.19794483527e-21
2.24046168477e-21
0.00221519001887
0.00237203694761
1.13745147169e-05
1.93337723374e-06
7.88543522529e-07
5.04495448122e-07
4.24300636171e-07
3.97277248421e-07
3.86183328647e-07
3.78386638378e-07
3.70923650672e-07
3.63385050253e-07
3.55732469791e-07
3.47950630158e-07
3.40069493589e-07
3.32077104581e-07
3.24008998185e-07
3.15903715158e-07
3.07808128894e-07
3.00062707026e-07
2.9212558645e-07
2.84333503148e-07
2.76775858269e-07
2.69473086869e-07
2.62479627225e-07
2.5613426232e-07
2.49918886691e-07
2.4415675074e-07
2.38859115287e-07
2.34080911068e-07
2.29875919532e-07
2.26238330148e-07
2.23183006359e-07
2.20737076591e-07
2.19140634152e-07
2.17885306181e-07
2.16728743338e-07
2.1952627536e-21
2.1952627536e-21
2.1952627536e-21
2.1952627536e-21
2.1952627536e-21
2.1952627536e-21
2.1952627536e-21
2.1952627536e-21
2.19526275361e-21
2.19526275361e-21
2.19526275361e-21
2.19526275361e-21
2.19526275361e-21
2.19526275361e-21
2.19526275361e-21
2.19526275361e-21
2.19526275361e-21
2.19526275361e-21
2.19526275361e-21
2.19526275361e-21
2.19526275361e-21
2.19526275361e-21
2.19526275361e-21
2.19526275361e-21
2.19526275361e-21
2.19526275361e-21
2.19526275362e-21
2.1952627538e-21
2.19526276696e-21
2.1952636751e-21
2.19532178674e-21
2.19913299418e-21
2.25476771558e-21
0.00893888957461
0.00197492956061
8.68659824062e-06
1.75753560927e-06
7.62189075589e-07
5.1598020317e-07
4.39035199345e-07
4.14660070951e-07
4.03457841735e-07
3.95071957437e-07
3.86889769172e-07
3.78639396457e-07
3.70272661657e-07
3.61803499239e-07
3.53247934213e-07
3.44631977563e-07
3.35987579648e-07
3.27626530952e-07
3.19013353106e-07
3.10507195599e-07
3.02122102245e-07
2.93949356611e-07
2.86003978155e-07
2.78361460844e-07
2.71337318968e-07
2.64438670545e-07
2.57984834783e-07
2.51987717325e-07
2.46521236549e-07
2.41588558561e-07
2.37221300644e-07
2.33716404958e-07
2.30563857929e-07
2.28026289717e-07
2.2611376276e-07
2.24834741602e-07
2.23907678578e-07
2.19526275358e-21
2.19526275358e-21
2.19526275358e-21
2.19526275358e-21
2.19526275358e-21
2.19526275358e-21
2.19526275358e-21
2.19526275358e-21
2.19526275358e-21
2.19526275358e-21
2.19526275358e-21
2.19526275358e-21
2.19526275358e-21
2.19526275358e-21
2.19526275358e-21
2.19526275358e-21
2.19526275358e-21
2.19526275359e-21
2.19526275359e-21
2.19526275359e-21
2.19526275359e-21
2.19526275359e-21
2.19526275359e-21
2.19526275359e-21
2.19526275359e-21
2.19526275359e-21
2.19526275359e-21
2.19526275385e-21
2.19526277172e-21
2.195263987e-21
2.19534055783e-21
2.20024081677e-21
2.26790795443e-21
0.0160565273196
0.00170716464073
7.33555609798e-06
1.66507123423e-06
7.67039051098e-07
5.2846909511e-07
4.60556240528e-07
4.37066804263e-07
4.25389384953e-07
4.16128867032e-07
4.06976877107e-07
3.97825947033e-07
3.8857785091e-07
3.79323788253e-07
3.70009960054e-07
3.60643116563e-07
3.51615827509e-07
3.42283426822e-07
3.33044713048e-07
3.23919827011e-07
3.15004867293e-07
3.06308720293e-07
2.98205052752e-07
2.90120404002e-07
2.8243003782e-07
2.75174163608e-07
2.68363932271e-07
2.62088367165e-07
2.5635525973e-07
2.51460877963e-07
2.46899986344e-07
2.42964384543e-07
2.39685099269e-07
2.37025335002e-07
2.35028817556e-07
2.33679195759e-07
2.32709705584e-07
2.19526275356e-21
2.19526275356e-21
2.19526275356e-21
2.19526275356e-21
2.19526275356e-21
2.19526275356e-21
2.19526275356e-21
2.19526275356e-21
2.19526275356e-21
2.19526275356e-21
2.19526275356e-21
2.19526275357e-21
2.19526275357e-21
2.19526275357e-21
2.19526275357e-21
2.19526275357e-21
2.19526275357e-21
2.19526275357e-21
2.19526275357e-21
2.19526275357e-21
2.19526275357e-21
2.19526275357e-21
2.19526275357e-21
2.19526275357e-21
2.19526275357e-21
2.19526275357e-21
2.19526275357e-21
2.19526275391e-21
2.19526277645e-21
2.19526428919e-21
2.19535817863e-21
2.20122308989e-21
9.85485104342e-10
0.020375673954
0.00149025662384
6.58844589194e-06
1.60931238308e-06
7.77091266348e-07
5.55824952507e-07
4.87525980103e-07
4.63555535076e-07
4.51406211821e-07
4.41240501206e-07
4.31198091252e-07
4.21092221811e-07
4.10915562008e-07
4.00671424081e-07
3.90402331571e-07
3.80491872888e-07
3.70294393588e-07
3.60166604136e-07
3.50193451776e-07
3.40359137002e-07
3.30752929182e-07
3.2174084943e-07
3.12761270833e-07
3.04154753324e-07
2.95992895697e-07
2.88273255174e-07
2.81073451648e-07
2.7471146981e-07
2.68629567334e-07
2.63176084778e-07
2.58371883071e-07
2.54228764794e-07
2.50756985227e-07
2.47952558463e-07
2.45848977433e-07
2.44436682256e-07
2.43440050477e-07
2.19526275355e-21
2.19526275355e-21
2.19526275355e-21
2.19526275355e-21
2.19526275355e-21
2.19526275355e-21
2.19526275355e-21
2.19526275355e-21
2.19526275355e-21
2.19526275355e-21
2.19526275355e-21
2.19526275355e-21
2.19526275355e-21
2.19526275355e-21
2.19526275355e-21
2.19526275355e-21
2.19526275355e-21
2.19526275355e-21
2.19526275355e-21
2.19526275355e-21
2.19526275355e-21
2.19526275355e-21
2.19526275355e-21
2.19526275355e-21
2.19526275355e-21
2.19526275356e-21
2.19526275356e-21
2.19526275397e-21
2.19526278118e-21
2.19526458203e-21
2.19537633226e-21
2.20206728744e-21
2.2126709236e-09
0.0232878628884
0.00133067714582
6.01088750016e-06
1.58238546294e-06
7.93064279249e-07
5.90100448702e-07
5.21267557577e-07
4.96519930118e-07
4.83198384136e-07
4.71602457499e-07
4.60210735696e-07
4.48807938498e-07
4.37394710207e-07
4.25984606278e-07
4.14972771519e-07
4.03659593706e-07
3.92466353044e-07
3.81403095123e-07
3.70522236951e-07
3.59821865381e-07
3.4974854462e-07
3.39704209534e-07
3.30039872325e-07
3.2078980865e-07
3.12039836462e-07
3.04081024097e-07
2.96382738548e-07
2.89278045386e-07
2.82828062264e-07
2.77036044626e-07
2.71936209941e-07
2.67523774915e-07
2.6411312183e-07
2.61148975205e-07
2.58906564425e-07
2.57389605594e-07
2.56359845125e-07
2.19526275354e-21
2.19526275354e-21
2.19526275354e-21
2.19526275354e-21
2.19526275354e-21
2.19526275354e-21
2.19526275354e-21
2.19526275354e-21
2.19526275354e-21
2.19526275354e-21
2.19526275354e-21
2.19526275354e-21
2.19526275354e-21
2.19526275354e-21
2.19526275354e-21
2.19526275354e-21
2.19526275354e-21
2.19526275354e-21
2.19526275354e-21
2.19526275354e-21
2.19526275354e-21
2.19526275354e-21
2.19526275354e-21
2.19526275354e-21
2.19526275354e-21
2.19526275354e-21
2.19526275355e-21
2.19526275403e-21
2.19526278618e-21
2.19526491188e-21
2.19540467632e-21
2.20286512283e-21
3.64743355628e-09
0.025307640513
0.00119242230851
5.68439559406e-06
1.58279118054e-06
8.22307223427e-07
6.27367586464e-07
5.6267126729e-07
5.35571270394e-07
5.20072167848e-07
5.0681227872e-07
4.93883002527e-07
4.81044240934e-07
4.68231081644e-07
4.55868956683e-07
4.43192513842e-07
4.30686099609e-07
4.18302733352e-07
4.0610327834e-07
3.94517266938e-07
3.82843903762e-07
3.7148442676e-07
3.60592562937e-07
3.50119024057e-07
3.40484121917e-07
3.30996085955e-07
3.22117069954e-07
3.13840498248e-07
3.06231711746e-07
2.9932887431e-07
2.93430351279e-07
2.8796543171e-07
2.83245883456e-07
2.79286412458e-07
2.76118758113e-07
2.73725496882e-07
2.72128051124e-07
2.71045120116e-07
2.19526275353e-21
2.19526275353e-21
2.19526275353e-21
2.19526275353e-21
2.19526275353e-21
2.19526275353e-21
2.19526275353e-21
2.19526275353e-21
2.19526275353e-21
2.19526275353e-21
2.19526275353e-21
2.19526275353e-21
2.19526275353e-21
2.19526275353e-21
2.19526275353e-21
2.19526275353e-21
2.19526275353e-21
2.19526275353e-21
2.19526275353e-21
2.19526275353e-21
2.19526275353e-21
2.19526275353e-21
2.19526275353e-21
2.19526275353e-21
2.19526275353e-21
2.19526275353e-21
2.19526275354e-21
2.19526275412e-21
2.19526279255e-21
2.19526539998e-21
2.19544350137e-21
2.2037031064e-21
5.09514377654e-09
0.0265597687971
0.0010639135885
5.37089464386e-06
1.58769193849e-06
8.66102567051e-07
6.74894009976e-07
6.06825687047e-07
5.80318261801e-07
5.63134233621e-07
5.47845129263e-07
5.33082235379e-07
5.18445465057e-07
5.03965518206e-07
4.90001876804e-07
4.75782649473e-07
4.61809816905e-07
4.48037747981e-07
4.34943146946e-07
4.21733091739e-07
4.08909797615e-07
3.96485516635e-07
3.84551336827e-07
3.73509507828e-07
3.62678446184e-07
3.52412857456e-07
3.42797248258e-07
3.34205775872e-07
3.25998362566e-07
3.18538145254e-07
3.11877683848e-07
3.0601759687e-07
3.00952225989e-07
2.96699503652e-07
2.93283588924e-07
2.91022951267e-07
2.89290117335e-07
2.88140989982e-07
2.19526275352e-21
2.19526275352e-21
2.19526275352e-21
2.19526275352e-21
2.19526275352e-21
2.19526275352e-21
2.19526275352e-21
2.19526275352e-21
2.19526275352e-21
2.19526275352e-21
2.19526275352e-21
2.19526275352e-21
2.19526275352e-21
2.19526275352e-21
2.19526275352e-21
2.19526275352e-21
2.19526275352e-21
2.19526275352e-21
2.19526275352e-21
2.19526275352e-21
2.19526275352e-21
2.19526275353e-21
2.19526275353e-21
2.19526275353e-21
2.19526275353e-21
2.19526275353e-21
2.19526275354e-21
2.19526275422e-21
2.1952628014e-21
2.19526607025e-21
2.19549198646e-21
2.20463528392e-21
6.7340512718e-09
0.0271129132107
0.000934359562007
5.13272023117e-06
1.61739283451e-06
9.11809812711e-07
7.26055220657e-07
6.61207814796e-07
6.32131369388e-07
6.1258872541e-07
5.95064396457e-07
5.78073590625e-07
5.6138558663e-07
5.45315715662e-07
5.29020587963e-07
5.13045062943e-07
4.97344225421e-07
4.82382549438e-07
4.67381728911e-07
4.52770821016e-07
4.38596062368e-07
4.25299908955e-07
4.12225658376e-07
3.99728672818e-07
3.87907756669e-07
3.77115025968e-07
3.66658999282e-07
3.56967107192e-07
3.48059979329e-07
3.40013415384e-07
3.3282211181e-07
3.26820384639e-07
3.21354108772e-07
3.16776738735e-07
3.13104727122e-07
3.10313813742e-07
3.08423409747e-07
3.07191838606e-07
2.19526275351e-21
2.19526275351e-21
2.19526275351e-21
2.19526275351e-21
2.19526275351e-21
2.19526275351e-21
2.19526275352e-21
2.19526275352e-21
2.19526275352e-21
2.19526275352e-21
2.19526275352e-21
2.19526275352e-21
2.19526275352e-21
2.19526275352e-21
2.19526275352e-21
2.19526275352e-21
2.19526275352e-21
2.19526275352e-21
2.19526275352e-21
2.19526275352e-21
2.19526275352e-21
2.19526275352e-21
2.19526275352e-21
2.19526275352e-21
2.19526275352e-21
2.19526275352e-21
2.19526275353e-21
2.19526275438e-21
2.19526281443e-21
2.19526698507e-21
2.19555340436e-21
2.20575726132e-21
8.72445443642e-09
0.0266957873333
0.000780061693765
4.93747198536e-06
1.64616571537e-06
9.71512938345e-07
7.86749033427e-07
7.21890601297e-07
6.90951896007e-07
6.69118445533e-07
6.48937037048e-07
6.29351550915e-07
6.10593189287e-07
5.9179480232e-07
5.7332689439e-07
5.55255842861e-07
5.38073929317e-07
5.20816628106e-07
5.04112939817e-07
4.87850920649e-07
4.72585190376e-07
4.57500490378e-07
4.43080522167e-07
4.29368572111e-07
4.16784455158e-07
4.04599835056e-07
3.93173563879e-07
3.82658498194e-07
3.73370591197e-07
3.6462232111e-07
3.56795107012e-07
3.49912281384e-07
3.44004777319e-07
3.39061253064e-07
3.35063617233e-07
3.32423402447e-07
3.30370522492e-07
3.29025393501e-07
2.19526275351e-21
2.19526275351e-21
2.19526275351e-21
2.19526275351e-21
2.19526275351e-21
2.19526275351e-21
2.19526275351e-21
2.19526275351e-21
2.19526275351e-21
2.19526275351e-21
2.19526275351e-21
2.19526275351e-21
2.19526275351e-21
2.19526275351e-21
2.19526275351e-21
2.19526275351e-21
2.19526275351e-21
2.19526275351e-21
2.19526275351e-21
2.19526275351e-21
2.19526275351e-21
2.19526275351e-21
2.19526275351e-21
2.19526275351e-21
2.19526275351e-21
2.19526275351e-21
2.19526275353e-21
2.19526275463e-21
2.19526283338e-21
2.19526823961e-21
2.19563547877e-21
2.20711677507e-21
1.13442949283e-08
0.0244841819762
0.000628325345169
4.75228990028e-06
1.68332720757e-06
1.03758607271e-06
8.57390683339e-07
7.91591322874e-07
7.58479983072e-07
7.334741548e-07
7.10088008006e-07
6.87969997064e-07
6.65917393217e-07
6.44405316947e-07
6.23447752125e-07
6.03456706625e-07
5.83526402402e-07
5.64216842549e-07
5.45905697338e-07
5.27824345138e-07
5.10404557927e-07
4.93698601075e-07
4.78188281908e-07
4.6308754327e-07
4.48816634419e-07
4.35450250835e-07
4.23399651233e-07
4.11874996834e-07
4.01375961532e-07
3.91840258762e-07
3.83736557826e-07
3.76238642037e-07
3.69773137995e-07
3.64407969408e-07
3.60085857691e-07
3.56824737608e-07
3.54591186222e-07
3.53151739735e-07
2.1952627535e-21
2.1952627535e-21
2.1952627535e-21
2.1952627535e-21
2.1952627535e-21
2.1952627535e-21
2.1952627535e-21
2.1952627535e-21
2.19526275351e-21
2.19526275351e-21
2.19526275351e-21
2.19526275351e-21
2.19526275351e-21
2.19526275351e-21
2.19526275351e-21
2.19526275351e-21
2.19526275351e-21
2.19526275351e-21
2.19526275351e-21
2.19526275351e-21
2.19526275351e-21
2.19526275351e-21
2.19526275351e-21
2.19526275351e-21
2.19526275351e-21
2.19526275351e-21
2.19526275353e-21
2.19526275499e-21
2.19526285901e-21
2.19526987191e-21
2.19574177909e-21
2.20890081755e-21
1.46325423019e-08
0.0186349928249
0.000457572521487
4.59103228421e-06
1.73900136671e-06
1.11308868246e-06
9.3589894528e-07
8.70508150367e-07
8.35067298772e-07
8.06413290476e-07
7.79820537679e-07
7.53665299179e-07
7.28291750535e-07
7.0368666905e-07
6.80305200899e-07
6.57126038835e-07
6.34636833438e-07
6.13382169232e-07
5.92363664974e-07
5.72138562243e-07
5.53216388507e-07
5.34685354801e-07
5.17025267778e-07
5.00372702322e-07
4.85079166667e-07
4.70408601466e-07
4.56748921405e-07
4.44125879724e-07
4.33037013465e-07
4.22650937567e-07
4.13392234244e-07
4.0524458303e-07
3.98205856928e-07
3.92757810202e-07
3.88029566025e-07
3.84471181522e-07
3.82026648159e-07
3.80486090559e-07
2.1952627535e-21
2.1952627535e-21
2.1952627535e-21
2.1952627535e-21
2.1952627535e-21
2.1952627535e-21
2.1952627535e-21
2.1952627535e-21
2.1952627535e-21
2.1952627535e-21
2.1952627535e-21
2.1952627535e-21
2.1952627535e-21
2.1952627535e-21
2.1952627535e-21
2.1952627535e-21
2.1952627535e-21
2.1952627535e-21
2.1952627535e-21
2.1952627535e-21
2.1952627535e-21
2.1952627535e-21
2.1952627535e-21
2.1952627535e-21
2.1952627535e-21
2.1952627535e-21
2.19526275353e-21
2.19526275551e-21
2.19526289529e-21
2.19527212975e-21
2.19588633173e-21
2.2113211755e-21
1.94533624715e-08
0.00932212487893
0.000261070962056
4.39160554781e-06
1.77578040179e-06
1.19944136072e-06
1.03328343638e-06
9.63324470897e-07
9.22596490856e-07
8.89020687133e-07
8.5796942505e-07
8.27716724594e-07
7.98523077083e-07
7.70830397832e-07
7.43541130461e-07
7.17193499656e-07
6.92328089881e-07
6.6782644979e-07
6.44260302816e-07
6.22115255876e-07
6.00511651293e-07
5.79907289664e-07
5.60853248091e-07
5.42373172991e-07
5.25065916833e-07
5.09313326499e-07
4.94320844015e-07
4.80526430406e-07
4.67911660775e-07
4.57004750633e-07
4.46850681008e-07
4.37932131311e-07
4.30279820715e-07
4.238828382e-07
4.18734105242e-07
4.14832866305e-07
4.12165885762e-07
4.10486492908e-07
2.1952627535e-21
2.1952627535e-21
2.1952627535e-21
2.1952627535e-21
2.1952627535e-21
2.1952627535e-21
2.1952627535e-21
2.1952627535e-21
2.1952627535e-21
2.1952627535e-21
2.1952627535e-21
2.1952627535e-21
2.1952627535e-21
2.1952627535e-21
2.1952627535e-21
2.1952627535e-21
2.1952627535e-21
2.1952627535e-21
2.1952627535e-21
2.1952627535e-21
2.1952627535e-21
2.1952627535e-21
2.1952627535e-21
2.1952627535e-21
2.1952627535e-21
2.1952627535e-21
2.19526275354e-21
2.19526275632e-21
2.19526294845e-21
2.19527537078e-21
2.19609321741e-21
2.21497994103e-21
3.0228797413e-06
0.00554704775545
0.000117699614945
4.24517196147e-06
1.84511386706e-06
1.29401773223e-06
1.13980877897e-06
1.06574366455e-06
1.02001613028e-06
9.81912608606e-07
9.45481853077e-07
9.10633786655e-07
8.77634340879e-07
8.45346022681e-07
8.1482114299e-07
7.84861969623e-07
7.56088424679e-07
7.29021550987e-07
7.02509774572e-07
6.77207246321e-07
6.53612828169e-07
6.30680762515e-07
6.08982221907e-07
5.89073035675e-07
5.69900527805e-07
5.52078726691e-07
5.35569610801e-07
5.20901624172e-07
5.07032710108e-07
4.94603366523e-07
4.83506220432e-07
4.7425032654e-07
4.65858431999e-07
4.58855966987e-07
4.53233214151e-07
4.48949061894e-07
4.46005010534e-07
4.4418496126e-07
2.19526275349e-21
2.19526275349e-21
2.19526275349e-21
2.19526275349e-21
2.19526275349e-21
2.19526275349e-21
2.19526275349e-21
2.19526275349e-21
2.19526275349e-21
2.19526275349e-21
2.19526275349e-21
2.19526275349e-21
2.19526275349e-21
2.19526275349e-21
2.19526275349e-21
2.19526275349e-21
2.1952627535e-21
2.1952627535e-21
2.1952627535e-21
2.1952627535e-21
2.1952627535e-21
2.1952627535e-21
2.1952627535e-21
2.1952627535e-21
2.1952627535e-21
2.1952627535e-21
2.19526275355e-21
2.19526275748e-21
2.19526302535e-21
2.19528017391e-21
2.19641585762e-21
2.22074165682e-21
1.12220896498e-05
0.00405631476933
5.7058299319e-05
4.10717722982e-06
1.92485139247e-06
1.40343797419e-06
1.25215801443e-06
1.18086767852e-06
1.13059195571e-06
1.08600783087e-06
1.04371699338e-06
1.00403758806e-06
9.65409633731e-07
9.28994430556e-07
8.93509104378e-07
8.59536650751e-07
8.2752611982e-07
7.96377106046e-07
7.67208603248e-07
7.38853758494e-07
7.11913931636e-07
6.86935193449e-07
6.62804063413e-07
6.40173091787e-07
6.19582154095e-07
5.99873487582e-07
5.81713819779e-07
5.65043857949e-07
5.50389300437e-07
5.36709591978e-07
5.24577514423e-07
5.13929885484e-07
5.05278755829e-07
4.9758572602e-07
4.91421317384e-07
4.86706037902e-07
4.83463985695e-07
4.81455872904e-07
2.19526275349e-21
2.19526275349e-21
2.19526275349e-21
2.19526275349e-21
2.19526275349e-21
2.19526275349e-21
2.19526275349e-21
2.19526275349e-21
2.19526275349e-21
2.19526275349e-21
2.19526275349e-21
2.19526275349e-21
2.19526275349e-21
2.19526275349e-21
2.19526275349e-21
2.19526275349e-21
2.19526275349e-21
2.19526275349e-21
2.19526275349e-21
2.19526275349e-21
2.19526275349e-21
2.19526275349e-21
2.19526275349e-21
2.19526275349e-21
2.19526275349e-21
2.19526275349e-21
2.19526275358e-21
2.19526275925e-21
2.19526314367e-21
2.1952877728e-21
2.19691162949e-21
2.22869522476e-21
0.000143675435983
0.0032953287147
3.35904321813e-05
3.98445645014e-06
2.0088023238e-06
1.53095713683e-06
1.38335653328e-06
1.30990545512e-06
1.25363731135e-06
1.20223003103e-06
1.15410702074e-06
1.10756891808e-06
1.06380035594e-06
1.02140852493e-06
9.80884654052e-07
9.42901776166e-07
9.06018215285e-07
8.71543985946e-07
8.38064627497e-07
8.06956799772e-07
7.76891271167e-07
7.48426483506e-07
7.22308504896e-07
6.97197583657e-07
6.73796499285e-07
6.52655078746e-07
6.32669524271e-07
6.14303107561e-07
5.97652150408e-07
5.83222805349e-07
5.69891298442e-07
5.58223187731e-07
5.48216844077e-07
5.40376488495e-07
5.33595988434e-07
5.28406808629e-07
5.24800808867e-07
5.22584840174e-07
2.19526275349e-21
2.19526275349e-21
2.19526275349e-21
2.19526275349e-21
2.19526275349e-21
2.19526275349e-21
2.19526275349e-21
2.19526275349e-21
2.19526275349e-21
2.19526275349e-21
2.19526275349e-21
2.19526275349e-21
2.19526275349e-21
2.19526275349e-21
2.19526275349e-21
2.19526275349e-21
2.19526275349e-21
2.19526275349e-21
2.19526275349e-21
2.19526275349e-21
2.19526275349e-21
2.19526275349e-21
2.19526275349e-21
2.19526275349e-21
2.19526275349e-21
2.19526275349e-21
2.19526275362e-21
2.19526276216e-21
2.19526334123e-21
2.19530023279e-21
2.19771837998e-21
2.24021048161e-21
0.00114153991771
0.00274902125012
2.3223136654e-05
3.88133679417e-06
2.09349034899e-06
1.67548455519e-06
1.53715844607e-06
1.45536640932e-06
1.39132919759e-06
1.3317816448e-06
1.27599305815e-06
1.22236176549e-06
1.17202873388e-06
1.12357363703e-06
1.07811610237e-06
1.03440492887e-06
9.93397153524e-07
9.53763017848e-07
9.16913281576e-07
8.81393650809e-07
8.48445230311e-07
8.16768468482e-07
7.87101344513e-07
7.59919682363e-07
7.34076031311e-07
7.10141492371e-07
6.8872265926e-07
6.68529573298e-07
6.50233952656e-07
6.34393268762e-07
6.19785980767e-07
6.06997021296e-07
5.96023809308e-07
5.86835315263e-07
5.79961077084e-07
5.74230242457e-07
5.70242551704e-07
5.67795833995e-07
2.19526275348e-21
2.19526275348e-21
2.19526275348e-21
2.19526275348e-21
2.19526275348e-21
2.19526275349e-21
2.19526275349e-21
2.19526275349e-21
2.19526275349e-21
2.19526275349e-21
2.19526275349e-21
2.19526275349e-21
2.19526275349e-21
2.19526275349e-21
2.19526275349e-21
2.19526275349e-21
2.19526275349e-21
2.19526275349e-21
2.19526275349e-21
2.19526275349e-21
2.19526275349e-21
2.19526275349e-21
2.19526275349e-21
2.19526275349e-21
2.19526275349e-21
2.19526275349e-21
2.19526275369e-21
2.19526276706e-21
2.19526366864e-21
2.19532064665e-21
2.19899051369e-21
2.25658819552e-21
0.00636650501163
0.00232202353117
1.75636612609e-05
3.8216728827e-06
2.22072006511e-06
1.84406639179e-06
1.7046759351e-06
1.61767415839e-06
1.54414655901e-06
1.47593246352e-06
1.41067746735e-06
1.34978711351e-06
1.29142736432e-06
1.23691266324e-06
1.18531066618e-06
1.13564498746e-06
1.08943829113e-06
1.04487861004e-06
1.00278308229e-06
9.63733200671e-07
9.26329970572e-07
8.91871687528e-07
8.58859274317e-07
8.28808793809e-07
8.00230030415e-07
7.73847408979e-07
7.50270971276e-07
7.28058885317e-07
7.07999903092e-07
6.89976495496e-07
6.74556149736e-07
6.60545204649e-07
6.4853381745e-07
6.38466754716e-07
6.30298384243e-07
6.24630835351e-07
6.20187883882e-07
6.17475732361e-07
2.19526275348e-21
2.19526275348e-21
2.19526275348e-21
2.19526275348e-21
2.19526275348e-21
2.19526275348e-21
2.19526275348e-21
2.19526275348e-21
2.19526275348e-21
2.19526275348e-21
2.19526275348e-21
2.19526275348e-21
2.19526275348e-21
2.19526275348e-21
2.19526275348e-21
2.19526275348e-21
2.19526275348e-21
2.19526275348e-21
2.19526275348e-21
2.19526275348e-21
2.19526275348e-21
2.19526275349e-21
2.19526275349e-21
2.19526275349e-21
2.19526275349e-21
2.19526275349e-21
2.19526275381e-21
2.19526277552e-21
2.19526422443e-21
2.19535425336e-21
2.20094693842e-21
6.42085886982e-11
0.016038203509
0.00192696571746
1.38625746179e-05
3.74563165625e-06
2.37814867404e-06
2.02632567085e-06
1.89762319246e-06
1.79849291172e-06
1.71357551235e-06
1.63412567784e-06
1.56005691889e-06
1.48949163377e-06
1.42373568105e-06
1.36173842974e-06
1.30229183191e-06
1.24693057362e-06
1.19391288847e-06
1.14473665358e-06
1.09754544301e-06
1.05398116596e-06
1.01226231197e-06
9.73995956557e-07
9.37518881424e-07
9.0352861047e-07
8.72719407886e-07
8.43634170528e-07
8.1690943458e-07
7.93283285727e-07
7.71190069348e-07
7.51437487181e-07
7.34588018834e-07
7.19239659759e-07
7.06058977952e-07
6.95004092059e-07
6.86047620229e-07
6.7976277058e-07
6.74863673499e-07
6.7183953755e-07
2.19526275348e-21
2.19526275348e-21
2.19526275348e-21
2.19526275348e-21
2.19526275348e-21
2.19526275348e-21
2.19526275348e-21
2.19526275348e-21
2.19526275348e-21
2.19526275348e-21
2.19526275348e-21
2.19526275348e-21
2.19526275348e-21
2.19526275348e-21
2.19526275348e-21
2.19526275348e-21
2.19526275348e-21
2.19526275348e-21
2.19526275348e-21
2.19526275348e-21
2.19526275348e-21
2.19526275348e-21