/*--------------------------------*- C++ -*----------------------------------*\
| =========                 |                                                 |
| \\      /  F ield         | foam-extend: Open Source CFD                    |
|  \\    /   O peration     | Version:     4.1                                |
|   \\  /    A nd           | Web:         http://www.foam-extend.org         |
|    \\/     M anipulation  |                                                 |
\*---------------------------------------------------------------------------*/
FoamFile
{
    version     2.0;
    format      ascii;
    class       volScalarField;
    location    "0.0002";
    object      NOPlus;
}
// * * * * * * * * * * * * * * * * * * * * * * * * * * * * * * * * * * * * * //

dimensions      [0 0 0 0 0 0 0];

internalField   nonuniform List<scalar> 
8400
(
1.21417155592e-66
1.21417155592e-66
1.21417155593e-66
1.21417155593e-66
1.21417155594e-66
1.21417155594e-66
1.21417155595e-66
1.21417155595e-66
1.21417155596e-66
1.21417155596e-66
1.21417155597e-66
1.21417155597e-66
1.21417155598e-66
1.21417155598e-66
1.21417155599e-66
1.21417155599e-66
1.21417155599e-66
1.214171556e-66
1.214171556e-66
1.21417155601e-66
1.21417155601e-66
1.21417155601e-66
1.21417155602e-66
1.21417155602e-66
1.21417155603e-66
1.21417155603e-66
1.21417155603e-66
1.21417155604e-66
1.21417155606e-66
1.21417155717e-66
1.21417163512e-66
1.21417683412e-66
1.21452364531e-66
1.22467163246e-66
1.67507421588e-26
3.95495249364e-07
0.000406695343314
2.17386411289e-05
9.7754997677e-06
6.24904624317e-06
5.10277489839e-06
4.69386395821e-06
4.54503677868e-06
4.46323693498e-06
4.40017717396e-06
4.34062694896e-06
4.28422502891e-06
4.22495167856e-06
4.16471700752e-06
4.10326273908e-06
4.04311197055e-06
3.97948775738e-06
3.91490387962e-06
3.84950978583e-06
3.78365197241e-06
3.71980755875e-06
3.65386516051e-06
3.58880111865e-06
3.5250235578e-06
3.4634642913e-06
3.40704266041e-06
3.35162046416e-06
3.30013666536e-06
3.25366871355e-06
3.21260809808e-06
3.17744562634e-06
3.14859900266e-06
3.12667862289e-06
3.11176424783e-06
3.09811591245e-06
1.21417155506e-66
1.21417155507e-66
1.21417155507e-66
1.21417155507e-66
1.21417155507e-66
1.21417155507e-66
1.21417155508e-66
1.21417155508e-66
1.21417155508e-66
1.21417155508e-66
1.21417155508e-66
1.21417155509e-66
1.21417155509e-66
1.21417155509e-66
1.21417155509e-66
1.21417155509e-66
1.21417155509e-66
1.2141715551e-66
1.2141715551e-66
1.2141715551e-66
1.2141715551e-66
1.2141715551e-66
1.2141715551e-66
1.21417155511e-66
1.21417155511e-66
1.21417155511e-66
1.21417155511e-66
1.21417155511e-66
1.21417155524e-66
1.21417156412e-66
1.21417217276e-66
1.21421095951e-66
1.21676878245e-66
1.25679853564e-66
1.63381240826e-13
0.000258043185179
4.34914108814e-05
1.37894096937e-05
7.35264833e-06
5.29296611854e-06
4.64896956666e-06
4.43070924379e-06
4.34547164502e-06
4.28984991824e-06
4.24019388637e-06
4.18866852814e-06
4.13761029821e-06
4.08203101397e-06
4.02460796152e-06
3.96538947475e-06
3.9045881995e-06
3.84257121647e-06
3.77937777382e-06
3.7155848792e-06
3.65134364916e-06
3.58945171895e-06
3.52572518171e-06
3.46334902673e-06
3.40278845689e-06
3.34481354349e-06
3.28975176168e-06
3.23828513762e-06
3.19107022275e-06
3.15071217869e-06
3.11341880983e-06
3.0817790538e-06
3.05592959972e-06
3.03624584118e-06
3.02289596147e-06
3.01194382728e-06
1.21417155479e-66
1.2141715548e-66
1.2141715548e-66
1.2141715548e-66
1.2141715548e-66
1.2141715548e-66
1.2141715548e-66
1.2141715548e-66
1.2141715548e-66
1.2141715548e-66
1.21417155481e-66
1.21417155481e-66
1.21417155481e-66
1.21417155481e-66
1.21417155481e-66
1.21417155481e-66
1.21417155481e-66
1.21417155481e-66
1.21417155481e-66
1.21417155482e-66
1.21417155482e-66
1.21417155482e-66
1.21417155482e-66
1.21417155482e-66
1.21417155482e-66
1.21417155482e-66
1.21417155482e-66
1.21417155483e-66
1.21417155539e-66
1.21417159358e-66
1.21417422163e-66
1.21435443395e-66
1.22193892897e-66
8.10234656249e-27
4.97618932451e-08
0.00049206957151
2.44958629001e-05
1.02362704628e-05
6.20000614885e-06
4.88852618616e-06
4.47695129724e-06
4.33143892428e-06
4.27183902462e-06
4.22160310395e-06
4.1741304282e-06
4.12488229983e-06
4.07560188747e-06
4.02173437071e-06
3.96580677982e-06
3.90797152297e-06
3.8487227486e-06
3.78805442287e-06
3.72657761897e-06
3.66460454215e-06
3.6021502531e-06
3.54248321191e-06
3.48144177938e-06
3.42187320131e-06
3.36464974907e-06
3.30988904302e-06
3.2580023282e-06
3.2097932567e-06
3.16566791814e-06
3.12838717595e-06
3.09397538617e-06
3.06484346537e-06
3.04116635651e-06
3.02311726406e-06
3.0109024136e-06
3.00149296479e-06
1.21417155467e-66
1.21417155467e-66
1.21417155467e-66
1.21417155467e-66
1.21417155468e-66
1.21417155468e-66
1.21417155468e-66
1.21417155468e-66
1.21417155468e-66
1.21417155468e-66
1.21417155468e-66
1.21417155468e-66
1.21417155468e-66
1.21417155468e-66
1.21417155468e-66
1.21417155468e-66
1.21417155468e-66
1.21417155469e-66
1.21417155469e-66
1.21417155469e-66
1.21417155469e-66
1.21417155469e-66
1.21417155469e-66
1.21417155469e-66
1.21417155469e-66
1.21417155469e-66
1.21417155469e-66
1.21417155472e-66
1.2141715567e-66
1.21417169444e-66
1.21418067934e-66
1.2147800256e-66
1.22920903502e-66
7.65724760801e-21
2.73666619874e-05
0.0001354170414
1.83434689747e-05
8.6337085992e-06
5.69711597792e-06
4.75613735239e-06
4.44575442935e-06
4.33907240977e-06
4.2813255425e-06
4.22865721215e-06
4.1808034089e-06
4.12919324309e-06
4.07563214238e-06
4.02027531677e-06
3.96308066143e-06
3.90426140851e-06
3.84423544722e-06
3.78303549463e-06
3.72121307071e-06
3.65909338719e-06
3.59930113786e-06
3.53759965315e-06
3.47735596424e-06
3.41879108007e-06
3.36270400845e-06
3.3093363907e-06
3.25888385791e-06
3.2144510269e-06
3.17171271962e-06
3.13372002719e-06
3.10065221927e-06
3.07278343059e-06
3.05016213763e-06
3.03303304337e-06
3.02150044187e-06
3.0126879883e-06
1.2141715546e-66
1.2141715546e-66
1.21417155461e-66
1.21417155461e-66
1.21417155461e-66
1.21417155461e-66
1.21417155461e-66
1.21417155461e-66
1.21417155461e-66
1.21417155461e-66
1.21417155461e-66
1.21417155461e-66
1.21417155461e-66
1.21417155461e-66
1.21417155461e-66
1.21417155461e-66
1.21417155461e-66
1.21417155461e-66
1.21417155462e-66
1.21417155462e-66
1.21417155462e-66
1.21417155462e-66
1.21417155462e-66
1.21417155462e-66
1.21417155462e-66
1.21417155462e-66
1.21417155462e-66
1.21417155468e-66
1.21417155913e-66
1.21417187286e-66
1.21419260406e-66
1.21560529946e-66
1.24237687968e-66
1.02367765846e-14
0.000154451251813
5.79721237276e-05
1.53909273102e-05
7.82258506714e-06
5.49124232231e-06
4.74378930369e-06
4.48724244727e-06
4.39768300406e-06
4.34036334342e-06
4.286675432e-06
4.23245116607e-06
4.17723585991e-06
4.12053798635e-06
4.06211280721e-06
4.00231778977e-06
3.94107339849e-06
3.87885846655e-06
3.81588433105e-06
3.75225474363e-06
3.69104810899e-06
3.62788004786e-06
3.56554255216e-06
3.50460470532e-06
3.44568383594e-06
3.38919183708e-06
3.33804795436e-06
3.28781451013e-06
3.24145792331e-06
3.19920697499e-06
3.1614435329e-06
3.12867740675e-06
3.10102086084e-06
3.07876641866e-06
3.06191133192e-06
3.05056704787e-06
3.04205683096e-06
1.21417155456e-66
1.21417155456e-66
1.21417155456e-66
1.21417155456e-66
1.21417155456e-66
1.21417155456e-66
1.21417155457e-66
1.21417155457e-66
1.21417155457e-66
1.21417155457e-66
1.21417155457e-66
1.21417155457e-66
1.21417155457e-66
1.21417155457e-66
1.21417155457e-66
1.21417155457e-66
1.21417155457e-66
1.21417155457e-66
1.21417155457e-66
1.21417155457e-66
1.21417155457e-66
1.21417155457e-66
1.21417155457e-66
1.21417155457e-66
1.21417155457e-66
1.21417155457e-66
1.21417155458e-66
1.21417155469e-66
1.21417156273e-66
1.2141721243e-66
1.21420859336e-66
1.21665511885e-66
1.25602503503e-66
1.17791104605e-13
0.000257622566177
4.35434175403e-05
1.38820891495e-05
7.4683542603e-06
5.43637282788e-06
4.79834746254e-06
4.5796226868e-06
4.49282426106e-06
4.43337146306e-06
4.37653767993e-06
4.31879443511e-06
4.25975337298e-06
4.19924482236e-06
4.13745470898e-06
4.0742599038e-06
4.0099079074e-06
3.94466601638e-06
3.87890389839e-06
3.81538210138e-06
3.7496673563e-06
3.6844808735e-06
3.62062071153e-06
3.55831536176e-06
3.49807566226e-06
3.44292840757e-06
3.38840703311e-06
3.33746707941e-06
3.29031687089e-06
3.24750475461e-06
3.20949977269e-06
3.17645562472e-06
3.14858184305e-06
3.1261239997e-06
3.11142419222e-06
3.09984718387e-06
3.08895066305e-06
1.21417155453e-66
1.21417155453e-66
1.21417155453e-66
1.21417155453e-66
1.21417155453e-66
1.21417155454e-66
1.21417155454e-66
1.21417155454e-66
1.21417155454e-66
1.21417155454e-66
1.21417155454e-66
1.21417155454e-66
1.21417155454e-66
1.21417155454e-66
1.21417155454e-66
1.21417155454e-66
1.21417155454e-66
1.21417155454e-66
1.21417155454e-66
1.21417155454e-66
1.21417155454e-66
1.21417155454e-66
1.21417155454e-66
1.21417155454e-66
1.21417155454e-66
1.21417155454e-66
1.21417155455e-66
1.21417155472e-66
1.2141715669e-66
1.21417240783e-66
1.21422621826e-66
1.21775533483e-66
1.26927218858e-66
2.34775459143e-11
0.000336759089353
3.68110077997e-05
1.29978963628e-05
7.27834126459e-06
5.50577656159e-06
4.9023267028e-06
4.70797194396e-06
4.62197724136e-06
4.55922434281e-06
4.4979520467e-06
4.435764626e-06
4.37220480006e-06
4.30732900775e-06
4.24122748292e-06
4.174069947e-06
4.10607016883e-06
4.03971424482e-06
3.9706740359e-06
3.90177263612e-06
3.83318595447e-06
3.76566864444e-06
3.69938351885e-06
3.63499360127e-06
3.57522363807e-06
3.5159571335e-06
3.46000061858e-06
3.40752987127e-06
3.35929267419e-06
3.31547142838e-06
3.27645234162e-06
3.24499422147e-06
3.21651430277e-06
3.1935171539e-06
3.17611982717e-06
3.16441959639e-06
3.15573582914e-06
1.21417155451e-66
1.21417155451e-66
1.21417155451e-66
1.21417155451e-66
1.21417155451e-66
1.21417155451e-66
1.21417155451e-66
1.21417155451e-66
1.21417155452e-66
1.21417155452e-66
1.21417155452e-66
1.21417155452e-66
1.21417155452e-66
1.21417155452e-66
1.21417155452e-66
1.21417155452e-66
1.21417155452e-66
1.21417155452e-66
1.21417155452e-66
1.21417155452e-66
1.21417155452e-66
1.21417155452e-66
1.21417155452e-66
1.21417155452e-66
1.21417155452e-66
1.21417155452e-66
1.21417155452e-66
1.21417155477e-66
1.21417157131e-66
1.21417269664e-66
1.21424359999e-66
1.21878116065e-66
1.2814398376e-66
7.98810838818e-10
0.000395542723168
3.30903865521e-05
1.25079167918e-05
7.28764137232e-06
5.58392128145e-06
5.05420920216e-06
4.87100023421e-06
4.78343405434e-06
4.71540876435e-06
4.6481214203e-06
4.58043771998e-06
4.51149204148e-06
4.44186825516e-06
4.37115496119e-06
4.29937631179e-06
4.22957172428e-06
4.15669499741e-06
4.0838393128e-06
4.01113171203e-06
3.93932733298e-06
3.86858666259e-06
3.80202586012e-06
3.73493443566e-06
3.6704852564e-06
3.60907987749e-06
3.5508798723e-06
3.49676305311e-06
3.44688910661e-06
3.40397202146e-06
3.36371936974e-06
3.32881941543e-06
3.29950927141e-06
3.27571077228e-06
3.25773519356e-06
3.24557167173e-06
3.23662436256e-06
1.2141715545e-66
1.2141715545e-66
1.2141715545e-66
1.2141715545e-66
1.2141715545e-66
1.2141715545e-66
1.2141715545e-66
1.2141715545e-66
1.2141715545e-66
1.2141715545e-66
1.2141715545e-66
1.2141715545e-66
1.2141715545e-66
1.2141715545e-66
1.2141715545e-66
1.2141715545e-66
1.2141715545e-66
1.2141715545e-66
1.2141715545e-66
1.2141715545e-66
1.2141715545e-66
1.2141715545e-66
1.2141715545e-66
1.2141715545e-66
1.2141715545e-66
1.2141715545e-66
1.21417155451e-66
1.21417155482e-66
1.21417157569e-66
1.21417297646e-66
1.21425991657e-66
1.2196907297e-66
1.45621734988e-27
3.5802545914e-09
0.000440002194366
3.08941990061e-05
1.21994484289e-05
7.33278447258e-06
5.76332031414e-06
5.242026502e-06
5.0600043374e-06
4.97127090918e-06
4.89833812658e-06
4.82603877918e-06
4.75271458987e-06
4.67821008101e-06
4.60262490206e-06
4.52625961096e-06
4.45188142152e-06
4.37458657492e-06
4.29698785591e-06
4.21977730776e-06
4.14286027964e-06
4.06694819321e-06
3.99497970713e-06
3.92247172271e-06
3.85228331558e-06
3.78505975437e-06
3.72084339294e-06
3.66036008915e-06
3.60642136829e-06
3.55440861643e-06
3.50740982983e-06
3.46573225402e-06
3.42956043369e-06
3.39904980037e-06
3.37434054886e-06
3.3557056856e-06
3.34315056924e-06
3.33405158422e-06
1.21417155448e-66
1.21417155448e-66
1.21417155448e-66
1.21417155448e-66
1.21417155448e-66
1.21417155448e-66
1.21417155449e-66
1.21417155449e-66
1.21417155449e-66
1.21417155449e-66
1.21417155449e-66
1.21417155449e-66
1.21417155449e-66
1.21417155449e-66
1.21417155449e-66
1.21417155449e-66
1.21417155449e-66
1.21417155449e-66
1.21417155449e-66
1.21417155449e-66
1.21417155449e-66
1.21417155449e-66
1.21417155449e-66
1.21417155449e-66
1.21417155449e-66
1.21417155449e-66
1.2141715545e-66
1.21417155487e-66
1.21417158007e-66
1.21417324763e-66
1.21427672653e-66
1.22047244301e-66
3.26196007112e-27
9.72939602521e-09
0.000467585066848
2.91279281195e-05
1.20350088342e-05
7.41593558212e-06
5.98561676502e-06
5.47261919705e-06
5.28973899261e-06
5.19542177171e-06
5.11438292501e-06
5.03440423445e-06
4.95368933526e-06
4.87217183928e-06
4.78980429944e-06
4.70956916787e-06
4.62629712763e-06
4.54322750548e-06
4.46026689288e-06
4.37782444522e-06
4.29588811819e-06
4.21789576428e-06
4.13925818094e-06
4.06283031922e-06
3.98891786879e-06
3.91826353264e-06
3.85330373762e-06
3.7898591493e-06
3.73077974123e-06
3.67668520894e-06
3.62774454904e-06
3.58427094945e-06
3.54643380829e-06
3.5170900314e-06
3.49137978741e-06
3.47190614037e-06
3.45872941794e-06
3.44948588724e-06
1.21417155447e-66
1.21417155447e-66
1.21417155447e-66
1.21417155447e-66
1.21417155447e-66
1.21417155447e-66
1.21417155447e-66
1.21417155448e-66
1.21417155448e-66
1.21417155448e-66
1.21417155448e-66
1.21417155448e-66
1.21417155448e-66
1.21417155448e-66
1.21417155448e-66
1.21417155448e-66
1.21417155448e-66
1.21417155448e-66
1.21417155448e-66
1.21417155448e-66
1.21417155448e-66
1.21417155448e-66
1.21417155448e-66
1.21417155448e-66
1.21417155448e-66
1.21417155448e-66
1.21417155449e-66
1.21417155493e-66
1.2141715847e-66
1.21417355307e-66
1.21430297268e-66
1.22121122569e-66
5.36457473489e-27
2.14055007478e-08
0.000484912284297
2.80749376426e-05
1.20069666127e-05
7.57875608097e-06
6.2224305907e-06
5.7485441887e-06
5.55472431138e-06
5.44857574499e-06
5.35855722331e-06
5.27027862604e-06
5.18179148336e-06
5.09256842694e-06
5.00567189478e-06
4.91565235827e-06
4.8257949606e-06
4.73591001612e-06
4.64640794486e-06
4.56041057137e-06
4.47293461529e-06
4.38698791619e-06
4.3036166777e-06
4.22261860008e-06
4.14733219496e-06
4.07234983552e-06
4.00140831112e-06
3.93462831947e-06
3.87268500142e-06
3.81600265347e-06
3.76719367447e-06
3.72164227582e-06
3.6819704984e-06
3.64854655003e-06
3.62167299302e-06
3.60133781925e-06
3.58768381231e-06
3.57819790432e-06
1.21417155446e-66
1.21417155447e-66
1.21417155447e-66
1.21417155447e-66
1.21417155447e-66
1.21417155447e-66
1.21417155447e-66
1.21417155447e-66
1.21417155447e-66
1.21417155447e-66
1.21417155447e-66
1.21417155447e-66
1.21417155447e-66
1.21417155447e-66
1.21417155447e-66
1.21417155447e-66
1.21417155447e-66
1.21417155447e-66
1.21417155447e-66
1.21417155447e-66
1.21417155447e-66
1.21417155447e-66
1.21417155447e-66
1.21417155447e-66
1.21417155447e-66
1.21417155447e-66
1.21417155448e-66
1.21417155501e-66
1.2141715906e-66
1.21417400503e-66
1.21433892405e-66
1.22198718495e-66
7.47534190343e-27
4.16691558725e-08
0.000493253941048
2.70474696299e-05
1.20015917475e-05
7.82448459109e-06
6.51805680801e-06
6.03456396473e-06
5.85030497785e-06
5.73609670664e-06
5.6352395093e-06
5.53734786431e-06
5.43936543616e-06
5.3413687519e-06
5.24591255929e-06
5.14758511432e-06
5.04989333153e-06
4.95255176434e-06
4.85887882395e-06
4.76331274483e-06
4.6694123301e-06
4.57740754986e-06
4.48807178568e-06
4.40456905631e-06
4.32186789163e-06
4.24266545133e-06
4.16763866066e-06
4.09992317488e-06
4.03460822618e-06
3.97472928993e-06
3.92084422013e-06
3.87308816933e-06
3.83147080828e-06
3.79636642743e-06
3.76802506551e-06
3.74925789832e-06
3.73476706966e-06
3.72494470414e-06
1.21417155446e-66
1.21417155446e-66
1.21417155446e-66
1.21417155446e-66
1.21417155446e-66
1.21417155446e-66
1.21417155446e-66
1.21417155446e-66
1.21417155446e-66
1.21417155446e-66
1.21417155446e-66
1.21417155446e-66
1.21417155446e-66
1.21417155446e-66
1.21417155446e-66
1.21417155446e-66
1.21417155446e-66
1.21417155446e-66
1.21417155446e-66
1.21417155446e-66
1.21417155446e-66
1.21417155446e-66
1.21417155446e-66
1.21417155446e-66
1.21417155446e-66
1.21417155446e-66
1.21417155447e-66
1.21417155511e-66
1.2141715988e-66
1.2141746257e-66
1.21438382045e-66
1.22285036628e-66
9.85220586449e-27
8.019452814e-08
0.000492262410163
2.62353780378e-05
1.21147397285e-05
8.075644032e-06
6.82799826109e-06
6.37641056429e-06
6.18215304406e-06
6.05684759552e-06
5.94500112836e-06
5.8355855743e-06
5.72701806496e-06
5.62131576539e-06
5.51300640953e-06
5.40572760613e-06
5.29903474902e-06
5.19621071028e-06
5.09179794877e-06
4.98893883843e-06
4.88786111707e-06
4.79203145734e-06
4.69655963834e-06
4.60434905118e-06
4.51612571852e-06
4.43466666139e-06
4.35493223959e-06
4.28037662562e-06
4.21123953e-06
4.14821571068e-06
4.09139287588e-06
4.04361573615e-06
3.99981665545e-06
3.96296392407e-06
3.93319041559e-06
3.9105327521e-06
3.89516145305e-06
3.884860357e-06
1.21417155445e-66
1.21417155445e-66
1.21417155445e-66
1.21417155445e-66
1.21417155445e-66
1.21417155445e-66
1.21417155445e-66
1.21417155445e-66
1.21417155445e-66
1.21417155445e-66
1.21417155445e-66
1.21417155445e-66
1.21417155445e-66
1.21417155445e-66
1.21417155445e-66
1.21417155446e-66
1.21417155446e-66
1.21417155446e-66
1.21417155446e-66
1.21417155446e-66
1.21417155446e-66
1.21417155446e-66
1.21417155446e-66
1.21417155446e-66
1.21417155446e-66
1.21417155446e-66
1.21417155447e-66
1.21417155526e-66
1.21417161086e-66
1.2141754728e-66
1.21444069244e-66
1.22388929924e-66
1.27227703419e-26
1.59470623679e-07
0.000476228951289
2.55480494702e-05
1.22208691467e-05
8.3987236846e-06
7.18542149945e-06
6.74607557066e-06
6.54667176707e-06
6.41179769555e-06
6.28740574211e-06
6.16538678843e-06
6.04728103238e-06
5.92744355141e-06
5.80834391947e-06
5.69037892822e-06
5.57683656355e-06
5.46144307018e-06
5.34846651917e-06
5.23721127881e-06
5.13138014985e-06
5.02559219456e-06
4.92317048503e-06
4.82471804586e-06
4.73320858996e-06
4.64363936446e-06
4.55875131085e-06
4.47976170587e-06
4.40932831979e-06
4.34236281485e-06
4.28196505356e-06
4.22849548205e-06
4.18232161357e-06
4.14346651487e-06
4.11195980857e-06
4.09103971942e-06
4.07472594807e-06
4.0638114464e-06
1.21417155445e-66
1.21417155445e-66
1.21417155445e-66
1.21417155445e-66
1.21417155445e-66
1.21417155445e-66
1.21417155445e-66
1.21417155445e-66
1.21417155445e-66
1.21417155445e-66
1.21417155445e-66
1.21417155445e-66
1.21417155445e-66
1.21417155445e-66
1.21417155445e-66
1.21417155445e-66
1.21417155445e-66
1.21417155445e-66
1.21417155445e-66
1.21417155445e-66
1.21417155445e-66
1.21417155445e-66
1.21417155445e-66
1.21417155445e-66
1.21417155445e-66
1.21417155445e-66
1.21417155447e-66
1.21417155549e-66
1.21417162841e-66
1.21417663449e-66
1.21451669202e-66
1.22514818702e-66
1.64787332262e-26
3.7066681228e-07
0.000443459918145
2.48793212669e-05
1.23626857042e-05
8.74688202966e-06
7.58833545942e-06
7.15679939879e-06
6.95139458645e-06
6.80238759952e-06
6.66320909053e-06
6.53019839791e-06
6.39596249606e-06
6.26333034427e-06
6.1324846868e-06
6.00614185771e-06
5.87846785665e-06
5.75318484506e-06
5.63292238181e-06
5.51249434483e-06
5.39504274078e-06
5.2810950029e-06
5.17407170063e-06
5.06863879904e-06
4.96777490529e-06
4.87220932295e-06
4.7851249937e-06
4.70087655899e-06
4.62337714324e-06
4.55233601952e-06
4.49148374073e-06
4.4346929753e-06
4.38541573032e-06
4.34421850993e-06
4.31094502074e-06
4.28571218117e-06
4.26843590613e-06
4.25705537859e-06
1.21417155444e-66
1.21417155444e-66
1.21417155444e-66
1.21417155444e-66
1.21417155444e-66
1.21417155444e-66
1.21417155444e-66
1.21417155444e-66
1.21417155444e-66
1.21417155444e-66
1.21417155444e-66
1.21417155444e-66
1.21417155444e-66
1.21417155444e-66
1.21417155445e-66
1.21417155445e-66
1.21417155445e-66
1.21417155445e-66
1.21417155445e-66
1.21417155445e-66
1.21417155445e-66
1.21417155445e-66
1.21417155445e-66
1.21417155445e-66
1.21417155445e-66
1.21417155445e-66
1.21417155447e-66
1.21417155582e-66
1.21417165214e-66
1.21417814597e-66
1.2146151244e-66
1.22680018155e-66
2.11505576283e-26
1.31399417132e-06
0.000384521385337
2.42768137615e-05
1.25849553534e-05
9.13399726242e-06
8.02108988096e-06
7.6053088667e-06
7.39479391258e-06
7.23069161405e-06
7.07798151579e-06
6.92594201544e-06
6.77645876598e-06
6.62968554658e-06
6.48856272261e-06
6.34681896236e-06
6.20740842248e-06
6.07384720965e-06
5.94000372757e-06
5.80950992871e-06
5.68573291601e-06
5.56294471589e-06
5.44446077102e-06
5.33126351088e-06
5.22611678993e-06
5.12412049062e-06
5.02817227669e-06
4.93856395084e-06
4.85898811446e-06
4.78374870902e-06
4.71610269602e-06
4.65610719816e-06
4.60391597723e-06
4.5632425529e-06
4.5278298941e-06
4.50104581798e-06
4.4826601969e-06
4.47085603146e-06
1.21417155444e-66
1.21417155444e-66
1.21417155444e-66
1.21417155444e-66
1.21417155444e-66
1.21417155444e-66
1.21417155444e-66
1.21417155444e-66
1.21417155444e-66
1.21417155444e-66
1.21417155444e-66
1.21417155444e-66
1.21417155444e-66
1.21417155444e-66
1.21417155444e-66
1.21417155444e-66
1.21417155444e-66
1.21417155444e-66
1.21417155444e-66
1.21417155444e-66
1.21417155444e-66
1.21417155444e-66
1.21417155444e-66
1.21417155444e-66
1.21417155444e-66
1.21417155444e-66
1.21417155447e-66
1.2141715563e-66
1.21417168573e-66
1.2141802367e-66
1.21474897782e-66
1.22904139394e-66
2.79371226706e-26
9.93141345261e-06
0.000283840676365
2.35377143471e-05
1.27144182405e-05
9.563760113e-06
8.53932255364e-06
8.11368278875e-06
7.88292209011e-06
7.69838251128e-06
7.52669766929e-06
7.35722467355e-06
7.19141095065e-06
7.03192945214e-06
6.87254774873e-06
6.71646563396e-06
6.56707387995e-06
6.41798725418e-06
6.27272887362e-06
6.13434699707e-06
5.99744596536e-06
5.86508765682e-06
5.74111401737e-06
5.61930282146e-06
5.50375914648e-06
5.39740736568e-06
5.29492222531e-06
5.19960515068e-06
5.11155950918e-06
5.03475397083e-06
4.96266560789e-06
4.89882520242e-06
4.84365685877e-06
4.79728315192e-06
4.75981504876e-06
4.73129446536e-06
4.7117877524e-06
4.69929005234e-06
1.21417155444e-66
1.21417155444e-66
1.21417155444e-66
1.21417155444e-66
1.21417155444e-66
1.21417155444e-66
1.21417155444e-66
1.21417155444e-66
1.21417155444e-66
1.21417155444e-66
1.21417155444e-66
1.21417155444e-66
1.21417155444e-66
1.21417155444e-66
1.21417155444e-66
1.21417155444e-66
1.21417155444e-66
1.21417155444e-66
1.21417155444e-66
1.21417155444e-66
1.21417155444e-66
1.21417155444e-66
1.21417155444e-66
1.21417155444e-66
1.21417155444e-66
1.21417155444e-66
1.21417155448e-66
1.21417155705e-66
1.21417173496e-66
1.21418323784e-66
1.21494055062e-66
1.23242935174e-66
5.1982787323e-19
3.94691301924e-05
0.000177645565961
2.29601839168e-05
1.29844831836e-05
1.00193539034e-05
9.08533675929e-06
8.65415263866e-06
8.40646459637e-06
8.2050010304e-06
8.01103793952e-06
7.82311184493e-06
7.64254072977e-06
7.4632129198e-06
7.29125454391e-06
7.11990055715e-06
6.95290575012e-06
6.79356431661e-06
6.63517026046e-06
6.48183309183e-06
6.33679478147e-06
6.19407262073e-06
6.05726697293e-06
5.93015611732e-06
5.80604743873e-06
5.6893400177e-06
5.57988792641e-06
5.4816090667e-06
5.38762161281e-06
5.3025757833e-06
5.22595920262e-06
5.1615684283e-06
5.10276033137e-06
5.05337762079e-06
5.01353180474e-06
4.98311654938e-06
4.96219971264e-06
4.94899836189e-06
1.21417155443e-66
1.21417155443e-66
1.21417155443e-66
1.21417155443e-66
1.21417155443e-66
1.21417155443e-66
1.21417155443e-66
1.21417155443e-66
1.21417155443e-66
1.21417155443e-66
1.21417155443e-66
1.21417155443e-66
1.21417155443e-66
1.21417155443e-66
1.21417155443e-66
1.21417155443e-66
1.21417155443e-66
1.21417155443e-66
1.21417155443e-66
1.21417155444e-66
1.21417155444e-66
1.21417155444e-66
1.21417155444e-66
1.21417155444e-66
1.21417155444e-66
1.21417155444e-66
1.21417155449e-66
1.21417155813e-66
1.21417180617e-66
1.21418768546e-66
1.21523931024e-66
1.23776460754e-66
1.91528226617e-18
8.6142558067e-05
0.000115036927462
2.23989172723e-05
1.32906474821e-05
1.05299092166e-05
9.63938322212e-06
9.23810473183e-06
8.97852577846e-06
8.75268319918e-06
8.53612926103e-06
8.32982676755e-06
8.12584109814e-06
7.93064234457e-06
7.73768903825e-06
7.55024942854e-06
7.37092832498e-06
7.19374709166e-06
7.02538648179e-06
6.85918617177e-06
6.69896492041e-06
6.54832298889e-06
6.40071845412e-06
6.26041646939e-06
6.13111366588e-06
6.00595675797e-06
5.88927451719e-06
5.78099138273e-06
5.68469469838e-06
5.59391754236e-06
5.51269797481e-06
5.44083852676e-06
5.38208431243e-06
5.3294899564e-06
5.28708756053e-06
5.25461803142e-06
5.23222580364e-06
5.21816901308e-06
1.21417155443e-66
1.21417155443e-66
1.21417155443e-66
1.21417155443e-66
1.21417155443e-66
1.21417155443e-66
1.21417155443e-66
1.21417155443e-66
1.21417155443e-66
1.21417155443e-66
1.21417155443e-66
1.21417155443e-66
1.21417155443e-66
1.21417155443e-66
1.21417155443e-66
1.21417155443e-66
1.21417155443e-66
1.21417155443e-66
1.21417155443e-66
1.21417155443e-66
1.21417155443e-66
1.21417155443e-66
1.21417155443e-66
1.21417155443e-66
1.21417155443e-66
1.21417155443e-66
1.21417155451e-66
1.21417155976e-66
1.21417191573e-66
1.21419472191e-66
1.21569838698e-66
1.24512948304e-66
1.03643202303e-14
0.000139510198684
8.34678007457e-05
2.18778471616e-05
1.3603581736e-05
1.11050526242e-05
1.02621964513e-05
9.86757899014e-06
9.59016146038e-06
9.34060884423e-06
9.10402621637e-06
8.87144860101e-06
8.64924040741e-06
8.43024922195e-06
8.21758893116e-06
8.01509247328e-06
7.81530047341e-06
7.62568420833e-06
7.43892888045e-06
7.26283168374e-06
7.08995980822e-06
6.92384753818e-06
6.76926864681e-06
6.61853514442e-06
6.4762200076e-06
6.34606839838e-06
6.22140386745e-06
6.10557957599e-06
5.99934682126e-06
5.90640897353e-06
5.81981647733e-06
5.74346904733e-06
5.67754878022e-06
5.62567085265e-06
5.58046991924e-06
5.5458144605e-06
5.52168119618e-06
5.50668251948e-06
1.21417155443e-66
1.21417155443e-66
1.21417155443e-66
1.21417155443e-66
1.21417155443e-66
1.21417155443e-66
1.21417155443e-66
1.21417155443e-66
1.21417155443e-66
1.21417155443e-66
1.21417155443e-66
1.21417155443e-66
1.21417155443e-66
1.21417155443e-66
1.21417155443e-66
1.21417155443e-66
1.21417155443e-66
1.21417155443e-66
1.21417155443e-66
1.21417155443e-66
1.21417155443e-66
1.21417155443e-66
1.21417155443e-66
1.21417155443e-66
1.21417155443e-66
1.21417155443e-66
1.21417155455e-66
1.21417156246e-66
1.21417209867e-66
1.21420625965e-66
1.21644542492e-66
1.25579242496e-66
9.5091876749e-15
0.000203573861446
6.66275349059e-05
2.14129363342e-05
1.39081178746e-05
1.17336606703e-05
1.09633829595e-05
1.05501836862e-05
1.02494727285e-05
9.97177759022e-06
9.70775756937e-06
9.44966817818e-06
9.20372789043e-06
8.96297824728e-06
8.73321129893e-06
8.50855919031e-06
8.29434883605e-06
8.08391638558e-06
7.88507427889e-06
7.69031029885e-06
7.50691457916e-06
7.32793727889e-06
7.15808115592e-06
7.000325877e-06
6.84819242601e-06
6.70546265436e-06
6.57623174266e-06
6.45283158559e-06
6.33986304266e-06
6.24101621281e-06
6.14898513854e-06
6.06776826749e-06
5.99759711327e-06
5.93852667448e-06
5.89409697944e-06
5.85697578035e-06
5.83104896035e-06
5.81499950304e-06
1.21417155442e-66
1.21417155442e-66
1.21417155442e-66
1.21417155443e-66
1.21417155443e-66
1.21417155443e-66
1.21417155443e-66
1.21417155443e-66
1.21417155443e-66
1.21417155443e-66
1.21417155443e-66
1.21417155443e-66
1.21417155443e-66
1.21417155443e-66
1.21417155443e-66
1.21417155443e-66
1.21417155443e-66
1.21417155443e-66
1.21417155443e-66
1.21417155443e-66
1.21417155443e-66
1.21417155443e-66
1.21417155443e-66
1.21417155443e-66
1.21417155443e-66
1.21417155443e-66
1.21417155461e-66
1.21417156699e-66
1.21417240185e-66
1.21422516256e-66
1.21762340019e-66
1.27095792361e-66
9.69476835808e-12
0.000275585670825
5.60648237063e-05
2.10874682148e-05
1.43751020301e-05
1.24407463656e-05
1.16965691163e-05
1.1280999736e-05
1.09524911793e-05
1.06477707534e-05
1.03512865348e-05
1.00696628854e-05
9.7948176492e-06
9.53346809343e-06
9.28182204743e-06
9.03555800143e-06
8.80288757654e-06
8.57462844136e-06
8.35541145581e-06
8.14862504202e-06
7.94741354294e-06
7.75920602867e-06
7.57613111913e-06
7.40714442053e-06
7.24410204127e-06
7.09161327848e-06
6.95379008344e-06
6.82250983998e-06
6.70253451955e-06
6.59365688495e-06
6.49963890883e-06
6.41346792123e-06
6.33905651676e-06
6.27631781781e-06
6.22520290556e-06
6.18966205082e-06
6.1618041009e-06
6.1446240534e-06
1.21417155442e-66
1.21417155442e-66
1.21417155442e-66
1.21417155442e-66
1.21417155442e-66
1.21417155442e-66
1.21417155442e-66
1.21417155442e-66
1.21417155442e-66
1.21417155442e-66
1.21417155442e-66
1.21417155442e-66
1.21417155442e-66
1.21417155442e-66
1.21417155442e-66
1.21417155442e-66
1.21417155442e-66
1.21417155442e-66
1.21417155443e-66
1.21417155443e-66
1.21417155443e-66
1.21417155443e-66
1.21417155443e-66
1.21417155443e-66
1.21417155443e-66
1.21417155443e-66
1.21417155473e-66
1.21417157483e-66
1.2141729165e-66
1.21425628183e-66
1.2194350179e-66
9.48809162175e-29
7.90459674714e-10
0.000358398633548
4.83423206172e-05
2.06993070999e-05
1.49430889404e-05
1.31747842677e-05
1.25087070982e-05
1.2061850317e-05
1.17005936214e-05
1.13604645301e-05
1.10375910539e-05
1.07240319124e-05
1.04263753837e-05
1.01404753052e-05
9.86128839944e-06
9.59657953747e-06
9.3385730475e-06
9.09501553618e-06
8.85725082228e-06
8.63448273278e-06
8.4176657819e-06
8.21577570896e-06
8.02026043198e-06
7.83537360319e-06
7.66543059811e-06
7.50280818061e-06
7.35142873904e-06
7.21600347723e-06
7.08791025793e-06
6.97220943099e-06
6.87255207824e-06
6.78099858122e-06
6.70188999813e-06
6.63521307678e-06
6.58090344011e-06
6.54280728509e-06
6.51300007062e-06
6.49457186436e-06
1.21417155442e-66
1.21417155442e-66
1.21417155442e-66
1.21417155442e-66
1.21417155442e-66
1.21417155442e-66
1.21417155442e-66
1.21417155442e-66
1.21417155442e-66
1.21417155442e-66
1.21417155442e-66
1.21417155442e-66
1.21417155442e-66
1.21417155442e-66
1.21417155442e-66
1.21417155442e-66
1.21417155442e-66
1.21417155442e-66