/*--------------------------------*- C++ -*----------------------------------*\
| =========                 |                                                 |
| \\      /  F ield         | foam-extend: Open Source CFD                    |
|  \\    /   O peration     | Version:     4.1                                |
|   \\  /    A nd           | Web:         http://www.foam-extend.org         |
|    \\/     M anipulation  |                                                 |
\*---------------------------------------------------------------------------*/
FoamFile
{
    version     2.0;
    format      ascii;
    class       volScalarField;
    location    "0.0002";
    object      NPlus;
}
// * * * * * * * * * * * * * * * * * * * * * * * * * * * * * * * * * * * * * //

dimensions      [0 0 0 0 0 0 0];

internalField   nonuniform List<scalar> 
8400
(
9.99867025038e-266
9.99867025045e-266
9.99867025051e-266
9.99867025058e-266
9.99867025064e-266
9.99867025071e-266
9.99867025077e-266
9.99867025083e-266
9.99867025089e-266
9.99867025095e-266
9.99867025101e-266
9.99867025107e-266
9.99867025112e-266
9.99867025118e-266
9.99867025123e-266
9.99867025129e-266
9.99867025134e-266
9.99867025139e-266
9.99867025144e-266
9.99867025149e-266
9.99867025154e-266
9.99867025159e-266
9.99867025164e-266
9.99867025168e-266
9.99867025173e-266
9.99867025177e-266
9.99867025182e-266
9.99867025186e-266
9.99867025209e-266
9.99867026572e-266
9.99867122284e-266
9.99873505621e-266
1.00029932072e-265
1.01275902848e-265
3.21612529911e-99
6.57789803132e-17
0.00090320007999
0.240806664336
0.437250094635
0.528836786789
0.565087482024
0.578743631906
0.583358500113
0.585440053514
0.586880304325
0.588210532945
0.58946949774
0.590805426687
0.592174877663
0.593586249193
0.594977935205
0.596464813875
0.597986022273
0.599540246421
0.601121006011
0.602667361731
0.604282508985
0.605889502583
0.607479277851
0.609027918625
0.610456764637
0.611874238166
0.613200762951
0.614406624001
0.615480010909
0.616404200223
0.617166501023
0.617750283147
0.618151157716
0.618602525296
9.99867023991e-266
9.99867023994e-266
9.99867023996e-266
9.99867023999e-266
9.99867024001e-266
9.99867024004e-266
9.99867024006e-266
9.99867024009e-266
9.99867024011e-266
9.99867024014e-266
9.99867024016e-266
9.99867024018e-266
9.9986702402e-266
9.99867024023e-266
9.99867024025e-266
9.99867024027e-266
9.99867024029e-266
9.99867024031e-266
9.99867024033e-266
9.99867024035e-266
9.99867024037e-266
9.99867024039e-266
9.99867024041e-266
9.99867024043e-266
9.99867024045e-266
9.99867024047e-266
9.99867024049e-266
9.99867024053e-266
9.99867024212e-266
9.99867035115e-266
9.99867782402e-266
9.99915404811e-266
1.00305590212e-265
1.05220446916e-265
2.91934333272e-34
3.44953063598e-06
0.0974106439551
0.354560668743
0.496046536951
0.556360840328
0.578312530804
0.585826743634
0.588383574167
0.589787880006
0.590971650503
0.592189862798
0.593397831591
0.594717966938
0.596087538313
0.597507643346
0.598974126818
0.600477778714
0.602018758652
0.60358383085
0.605173258058
0.6067161869
0.608318443828
0.609897195167
0.611441183784
0.612929020646
0.614352342007
0.615692503846
0.616930488673
0.617992448974
0.618979770736
0.619823334495
0.620515251841
0.621047130731
0.62140993111
0.621763758824
9.9986702366e-266
9.99867023661e-266
9.99867023663e-266
9.99867023664e-266
9.99867023666e-266
9.99867023667e-266
9.99867023669e-266
9.9986702367e-266
9.99867023672e-266
9.99867023673e-266
9.99867023674e-266
9.99867023676e-266
9.99867023677e-266
9.99867023678e-266
9.9986702368e-266
9.99867023681e-266
9.99867023682e-266
9.99867023683e-266
9.99867023685e-266
9.99867023686e-266
9.99867023687e-266
9.99867023688e-266
9.99867023689e-266
9.9986702369e-266
9.99867023691e-266
9.99867023693e-266
9.99867023694e-266
9.99867023705e-266
9.99867024395e-266
9.99867071284e-266
9.99870298e-266
1.00009156285e-265
1.00940381268e-265
1.6096402147e-99
8.57429348376e-20
0.000229146626284
0.211158482481
0.425355510259
0.528075759402
0.569321461442
0.583711009451
0.588507713415
0.590189180852
0.591424439552
0.592556939599
0.593730725957
0.594907508899
0.596197530039
0.597541907844
0.598938744422
0.600376632218
0.601856569136
0.603363838935
0.604893558182
0.60644769619
0.607943040033
0.609484267039
0.610997457468
0.612458730338
0.613867265662
0.615212976931
0.616472545201
0.617632651859
0.618616725582
0.619529120524
0.620303769442
0.620939068677
0.621425557106
0.621756532931
0.622057966435
9.9986702351e-266
9.99867023511e-266
9.99867023512e-266
9.99867023513e-266
9.99867023514e-266
9.99867023515e-266
9.99867023516e-266
9.99867023517e-266
9.99867023518e-266
9.99867023519e-266
9.9986702352e-266
9.99867023521e-266
9.99867023522e-266
9.99867023523e-266
9.99867023524e-266
9.99867023525e-266
9.99867023525e-266
9.99867023526e-266
9.99867023527e-266
9.99867023528e-266
9.99867023529e-266
9.9986702353e-266
9.9986702353e-266
9.99867023531e-266
9.99867023532e-266
9.99867023533e-266
9.99867023534e-266
9.99867023569e-266
9.99867025996e-266
9.99867195119e-266
9.99878226785e-266
1.00061410466e-265
1.01833005544e-265
1.85413455058e-65
5.30798707836e-10
0.012372905033
0.282613262445
0.462893859667
0.54342944555
0.574298564631
0.585056658405
0.588446512934
0.589964771813
0.591233902293
0.592369444419
0.593594300508
0.594868393203
0.596189265835
0.597560299218
0.598977580207
0.600431467902
0.601922331614
0.603437124837
0.604971032491
0.606457397791
0.608004319317
0.609524051889
0.611011027886
0.612442527791
0.613813771549
0.615120934892
0.616279092302
0.617402458191
0.618404620648
0.619279333595
0.620020412952
0.620624068762
0.621084444245
0.621395219773
0.621672574014
9.99867023427e-266
9.99867023428e-266
9.99867023429e-266
9.9986702343e-266
9.9986702343e-266
9.99867023431e-266
9.99867023432e-266
9.99867023433e-266
9.99867023434e-266
9.99867023434e-266
9.99867023435e-266
9.99867023436e-266
9.99867023436e-266
9.99867023437e-266
9.99867023438e-266
9.99867023439e-266
9.99867023439e-266
9.9986702344e-266
9.99867023441e-266
9.99867023441e-266
9.99867023442e-266
9.99867023442e-266
9.99867023443e-266
9.99867023444e-266
9.99867023444e-266
9.99867023445e-266
9.99867023447e-266
9.99867023525e-266
9.99867028987e-266
9.99867414187e-266
9.99892867967e-266
1.00162737665e-265
1.03449754697e-265
5.22150936359e-47
4.18850212306e-07
0.0606355131704
0.327116418982
0.483682396543
0.550553243532
0.575637508512
0.584384189456
0.587112094676
0.588557737944
0.589829154916
0.591102655921
0.592400089716
0.593737671744
0.59512245579
0.596545835925
0.598012249041
0.599510282888
0.601036039213
0.602589641822
0.604092967395
0.605658182393
0.607213384579
0.608744022068
0.610233887652
0.61167223775
0.612980445605
0.614275382629
0.61547818581
0.616581407166
0.617573592755
0.618438557906
0.61917033164
0.619763152555
0.620212868133
0.620516079554
0.620782805222
9.99867023375e-266
9.99867023376e-266
9.99867023376e-266
9.99867023377e-266
9.99867023378e-266
9.99867023378e-266
9.99867023379e-266
9.9986702338e-266
9.9986702338e-266
9.99867023381e-266
9.99867023382e-266
9.99867023382e-266
9.99867023383e-266
9.99867023383e-266
9.99867023384e-266
9.99867023385e-266
9.99867023385e-266
9.99867023386e-266
9.99867023386e-266
9.99867023387e-266
9.99867023387e-266
9.99867023388e-266
9.99867023388e-266
9.99867023389e-266
9.99867023389e-266
9.9986702339e-266
9.99867023392e-266
9.99867023533e-266
9.99867033404e-266
9.998677229e-266
9.99912499639e-266
1.00291634585e-265
1.05125476442e-265
2.10039831414e-34
3.4247462624e-06
0.0973655628627
0.353543696644
0.494024584421
0.553395710528
0.575020551499
0.582398842951
0.584906318619
0.586357889756
0.58768132603
0.589018789829
0.590390097956
0.591801910492
0.593251120657
0.594742372947
0.596269325989
0.597827164053
0.599408244279
0.600943964515
0.602545388159
0.60414618368
0.605726505291
0.60727951276
0.608791912763
0.610184062426
0.61157163359
0.612876119304
0.614092367481
0.615203457624
0.616196445328
0.617061780529
0.617793259242
0.618386665029
0.618775636231
0.619084350391
0.619414266999
9.99867023339e-266
9.9986702334e-266
9.99867023341e-266
9.99867023341e-266
9.99867023342e-266
9.99867023342e-266
9.99867023343e-266
9.99867023343e-266
9.99867023344e-266
9.99867023345e-266
9.99867023345e-266
9.99867023346e-266
9.99867023346e-266
9.99867023347e-266
9.99867023347e-266
9.99867023348e-266
9.99867023348e-266
9.99867023348e-266
9.99867023349e-266
9.99867023349e-266
9.9986702335e-266
9.9986702335e-266
9.99867023351e-266
9.99867023351e-266
9.99867023352e-266
9.99867023352e-266
9.99867023355e-266
9.99867023571e-266
9.9986703853e-266
9.99868071016e-266
9.99934139516e-266
1.00426719201e-265
1.06751963149e-265
2.86439115737e-29
1.13885199743e-05
0.125504808282
0.370495787236
0.50012645085
0.552947690953
0.573070297041
0.579547242983
0.581925559416
0.583414389668
0.58481560635
0.586233826017
0.587689058774
0.589182489784
0.590713420217
0.592277725703
0.593871995288
0.595436813195
0.59707620997
0.598725907439
0.600379687679
0.602019718181
0.603642000325
0.605230044434
0.606713478491
0.608197080858
0.609607651311
0.610940656693
0.612174442587
0.613302088088
0.614311271095
0.615126152112
0.615869305384
0.616470831002
0.616927631369
0.617236690086
0.617503775488
9.99867023314e-266
9.99867023314e-266
9.99867023315e-266
9.99867023315e-266
9.99867023316e-266
9.99867023316e-266
9.99867023317e-266
9.99867023317e-266
9.99867023317e-266
9.99867023318e-266
9.99867023318e-266
9.99867023319e-266
9.99867023319e-266
9.9986702332e-266
9.9986702332e-266
9.99867023321e-266
9.99867023321e-266
9.99867023321e-266
9.99867023322e-266
9.99867023322e-266
9.99867023323e-266
9.99867023323e-266
9.99867023323e-266
9.99867023324e-266
9.99867023324e-266
9.99867023324e-266
9.99867023329e-266
9.99867023625e-266
9.99867043941e-266
9.99868425618e-266
9.9995548082e-266
1.00552670189e-265
1.08245908192e-265
7.06405629955e-25
2.580044119e-05
0.146044312312
0.380859500824
0.501563945732
0.552032733624
0.569954669044
0.575917129156
0.578238730401
0.57980794435
0.581317817384
0.582835907445
0.584388767005
0.585965756669
0.587578184641
0.589226351164
0.590838161184
0.592533083769
0.594239720685
0.595957244264
0.597666039446
0.5993630203
0.600968761714
0.602601082478
0.604181166056
0.60569839776
0.60714860636
0.608507896742
0.609770293916
0.610860942266
0.611890376057
0.612785860429
0.613542827093
0.614158512653
0.614626725354
0.61494430459
0.615215344716
9.99867023294e-266
9.99867023294e-266
9.99867023295e-266
9.99867023295e-266
9.99867023296e-266
9.99867023296e-266
9.99867023297e-266
9.99867023297e-266
9.99867023297e-266
9.99867023298e-266
9.99867023298e-266
9.99867023299e-266
9.99867023299e-266
9.99867023299e-266
9.998670233e-266
9.998670233e-266
9.998670233e-266
9.99867023301e-266
9.99867023301e-266
9.99867023302e-266
9.99867023302e-266
9.99867023302e-266
9.99867023303e-266
9.99867023303e-266
9.99867023303e-266
9.99867023304e-266
9.99867023309e-266
9.99867023686e-266
9.9986704932e-266
9.99868769181e-266
9.99975514323e-266
1.00664347159e-265
2.9718368997e-100
5.1826224782e-23
4.94765246141e-05
0.160566607932
0.387931078999
0.501941210747
0.548756701188
0.56602030833
0.571740899471
0.574009072222
0.575649025161
0.577237912249
0.578851528127
0.580499891523
0.582181565082
0.583891580593
0.585567164273
0.587321921255
0.589097441747
0.590878546032
0.592667185507
0.594446940957
0.596145881103
0.597871383521
0.599554060674
0.601177891707
0.602742398148
0.604228972852
0.605563030525
0.606860575751
0.608040027512
0.609090964345
0.610007201977
0.610784206655
0.611415109305
0.611893191341
0.612216269227
0.61248757103
9.99867023278e-266
9.99867023279e-266
9.99867023279e-266
9.9986702328e-266
9.9986702328e-266
9.9986702328e-266
9.99867023281e-266
9.99867023281e-266
9.99867023282e-266
9.99867023282e-266
9.99867023282e-266
9.99867023283e-266
9.99867023283e-266
9.99867023283e-266
9.99867023284e-266
9.99867023284e-266
9.99867023284e-266
9.99867023285e-266
9.99867023285e-266
9.99867023285e-266
9.99867023286e-266
9.99867023286e-266
9.99867023286e-266
9.99867023286e-266
9.99867023287e-266
9.99867023287e-266
9.99867023294e-266
9.99867023754e-266
9.99867054696e-266
9.99869102122e-266
9.99996153617e-266
1.00760325989e-265
6.59826869384e-100
7.11093739277e-22
7.98438720227e-05
0.173529024184
0.392394586413
0.501343711208
0.54452405721
0.561191654237
0.566741562861
0.569051673349
0.570822960595
0.57254122843
0.57427883325
0.576043011462
0.577839991237
0.579601594038
0.581444680026
0.583294735778
0.58515860529
0.587026848795
0.588900217705
0.59069681858
0.592523308628
0.594310356686
0.596051669375
0.597732199483
0.59929025793
0.600825296087
0.602264714181
0.603591253191
0.604799197653
0.605879303175
0.606825223187
0.607559141099
0.608207141642
0.608697632341
0.609029162393
0.609299386549
9.99867023266e-266
9.99867023266e-266
9.99867023267e-266
9.99867023267e-266
9.99867023267e-266
9.99867023268e-266
9.99867023268e-266
9.99867023268e-266
9.99867023269e-266
9.99867023269e-266
9.99867023269e-266
9.9986702327e-266
9.9986702327e-266
9.9986702327e-266
9.99867023271e-266
9.99867023271e-266
9.99867023271e-266
9.99867023272e-266
9.99867023272e-266
9.99867023272e-266
9.99867023272e-266
9.99867023273e-266
9.99867023273e-266
9.99867023273e-266
9.99867023274e-266
9.99867023274e-266
9.99867023282e-266
9.99867023831e-266
9.9986706038e-266
9.99869477141e-266
1.00002837865e-265
1.00851033793e-265
1.07546769923e-99
7.17966260868e-21
0.000120270658389
0.182375917863
0.394477369638
0.499060408935
0.540029283458
0.555483151901
0.56108020062
0.563561295236
0.565471815698
0.567321006922
0.569181369273
0.571070141319
0.572921031055
0.574855489954
0.576802479242
0.5787660794
0.580738773405
0.582651758826
0.584615320915
0.586558717295
0.5884580368
0.590316942926
0.592056122712
0.593808555244
0.595481931205
0.597070309032
0.598553912106
0.599920041599
0.60110131995
0.602213106789
0.603188253143
0.604012962952
0.604678218796
0.605181204308
0.605519207023
0.605788810744
9.99867023256e-266
9.99867023256e-266
9.99867023256e-266
9.99867023257e-266
9.99867023257e-266
9.99867023257e-266
9.99867023258e-266
9.99867023258e-266
9.99867023258e-266
9.99867023259e-266
9.99867023259e-266
9.99867023259e-266
9.9986702326e-266
9.9986702326e-266
9.9986702326e-266
9.9986702326e-266
9.99867023261e-266
9.99867023261e-266
9.99867023261e-266
9.99867023261e-266
9.99867023262e-266
9.99867023262e-266
9.99867023262e-266
9.99867023262e-266
9.99867023263e-266
9.99867023263e-266
9.99867023273e-266
9.99867023924e-266
9.99867067617e-266
9.99870032067e-266
1.00007251978e-265
1.00946306142e-265
1.48432044391e-99
4.8935726764e-20
0.000175693868406
0.191426901252
0.396111523022
0.49515611534
0.534404567541
0.549681136532
0.554894543919
0.557456843497
0.559536202526
0.561533888715
0.563542256379
0.565566764949
0.567551251639
0.569615351257
0.571683081229
0.573762545746
0.575781147496
0.577862778317
0.579928651714
0.581969926254
0.583966604376
0.585844808324
0.58772076881
0.589534398027
0.591270580134
0.592849526512
0.594385561927
0.595800945651
0.597082593236
0.598225294674
0.599229244173
0.600080067787
0.600770104377
0.601224302332
0.601576891112
0.601848581292
9.99867023247e-266
9.99867023247e-266
9.99867023248e-266
9.99867023248e-266
9.99867023248e-266
9.99867023249e-266
9.99867023249e-266
9.99867023249e-266
9.9986702325e-266
9.9986702325e-266
9.9986702325e-266
9.9986702325e-266
9.99867023251e-266
9.99867023251e-266
9.99867023251e-266
9.99867023251e-266
9.99867023252e-266
9.99867023252e-266
9.99867023252e-266
9.99867023252e-266
9.99867023253e-266
9.99867023253e-266
9.99867023253e-266
9.99867023253e-266
9.99867023254e-266
9.99867023254e-266
9.99867023266e-266
9.99867024046e-266
9.99867077687e-266
9.99870794121e-266
1.00012764363e-265
1.01052287622e-265
1.93483159597e-99
3.7760800319e-19
0.000256717150449
0.199267569885
0.395844003999
0.491239298481
0.528627517891
0.542881861688
0.548111127015
0.550802858704
0.553034477705
0.555206860463
0.557375112184
0.559500915265
0.561699496355
0.563895017654
0.566100787039
0.568243213267
0.570443322553
0.572632148655
0.574807083252
0.576884525123
0.578974989646
0.581008176756
0.582970674522
0.584799083304
0.586607662519
0.588312373683
0.589904594159
0.591365344564
0.592691535351
0.593812306409
0.594847230997
0.595720568618
0.596429723991
0.596969068418
0.597334021337
0.597613366276
9.9986702324e-266
9.9986702324e-266
9.9986702324e-266
9.99867023241e-266
9.99867023241e-266
9.99867023241e-266
9.99867023242e-266
9.99867023242e-266
9.99867023242e-266
9.99867023242e-266
9.99867023243e-266
9.99867023243e-266
9.99867023243e-266
9.99867023243e-266
9.99867023244e-266
9.99867023244e-266
9.99867023244e-266
9.99867023244e-266
9.99867023245e-266
9.99867023245e-266
9.99867023245e-266
9.99867023245e-266
9.99867023245e-266
9.99867023246e-266
9.99867023246e-266
9.99867023246e-266
9.99867023261e-266
9.99867024228e-266
9.99867092499e-266
9.99871834197e-266
1.0001974711e-265
1.01179847905e-265
2.46631943814e-99
3.37086491968e-18
0.000403101221961
0.20648927343
0.395771970946
0.486102247037
0.52208737608
0.535708957097
0.540841323389
0.543616017768
0.54601505323
0.548367754126
0.550658110345
0.553005854873
0.555359318959
0.557713405213
0.560000546362
0.56234982319
0.564673589017
0.5669850657
0.569206584155
0.571448858381
0.573641120955
0.575765143426
0.577756295319
0.579725478058
0.581608053484
0.583377353951
0.584963930508
0.586485685574
0.587867063887
0.589098559123
0.59016689303
0.591068962971
0.591801424035
0.592286099676
0.592666414794
0.592954899593
9.99867023234e-266
9.99867023234e-266
9.99867023234e-266
9.99867023234e-266
9.99867023235e-266
9.99867023235e-266
9.99867023235e-266
9.99867023236e-266
9.99867023236e-266
9.99867023236e-266
9.99867023236e-266
9.99867023237e-266
9.99867023237e-266
9.99867023237e-266
9.99867023237e-266
9.99867023237e-266
9.99867023238e-266
9.99867023238e-266
9.99867023238e-266
9.99867023238e-266
9.99867023238e-266
9.99867023239e-266
9.99867023239e-266
9.99867023239e-266
9.99867023239e-266
9.9986702324e-266
9.99867023258e-266
9.99867024508e-266
9.99867114044e-266
9.99873260512e-266
1.00029078346e-265
1.0133441426e-265
3.14409041881e-99
5.56437604144e-17
0.000639557168713
0.213918988558
0.39525798753
0.480707233127
0.514890393153
0.527941312808
0.532973742751
0.535905429094
0.538502863581
0.540986153984
0.543515924113
0.546039549352
0.548554250039
0.551004517192
0.553510615003
0.555996808217
0.558405872559
0.560848845403
0.563255944358
0.565615501357
0.567849298538
0.570071922138
0.572218442077
0.574272461124
0.576157792418
0.578001590015
0.579710683224
0.581288804231
0.582647378689
0.583928025417
0.585044221187
0.585981910451
0.586739116487
0.587313756389
0.58770518242
0.587994887711
9.99867023228e-266
9.99867023228e-266
9.99867023229e-266
9.99867023229e-266
9.99867023229e-266
9.99867023229e-266
9.9986702323e-266
9.9986702323e-266
9.9986702323e-266
9.9986702323e-266
9.99867023231e-266
9.99867023231e-266
9.99867023231e-266
9.99867023231e-266
9.99867023232e-266
9.99867023232e-266
9.99867023232e-266
9.99867023232e-266
9.99867023232e-266
9.99867023233e-266
9.99867023233e-266
9.99867023233e-266
9.99867023233e-266
9.99867023233e-266
9.99867023234e-266
9.99867023234e-266
9.99867023257e-266
9.99867024915e-266
9.99867143186e-266
9.99875116309e-266
1.00041163882e-265
1.01537246298e-265
3.95348460656e-99
6.65668026551e-15
0.00113124598859
0.221180355668
0.393656670817
0.474851693874
0.507382217626
0.519689507292
0.524586713595
0.527672714612
0.530422539915
0.533173098937
0.535906119587
0.538618698138
0.541250746603
0.543925755919
0.546587202934
0.549164040951
0.551778353518
0.554355746042
0.556826610828
0.559305859763
0.561721206014
0.564053691635
0.566236470728
0.568377106042
0.570407822041
0.57232207264
0.574033602332
0.575666959721
0.577145256859
0.578465650011
0.579622659615
0.580525819828
0.581313979241
0.581908833555
0.582313886131
0.582602881193
9.99867023223e-266
9.99867023224e-266
9.99867023224e-266
9.99867023224e-266
9.99867023224e-266
9.99867023225e-266
9.99867023225e-266
9.99867023225e-266
9.99867023225e-266
9.99867023226e-266
9.99867023226e-266
9.99867023226e-266
9.99867023226e-266
9.99867023226e-266
9.99867023227e-266
9.99867023227e-266
9.99867023227e-266
9.99867023227e-266
9.99867023227e-266
9.99867023228e-266
9.99867023228e-266
9.99867023228e-266
9.99867023228e-266
9.99867023228e-266
9.99867023228e-266
9.99867023229e-266
9.99867023261e-266
9.99867025511e-266
9.99867184425e-266
9.9987768331e-266
1.00057598417e-265
1.01812422557e-265
5.07907310644e-99
1.06126244442e-11
0.00261694706103
0.230079633591
0.393679818187
0.468522430176
0.498612155312
0.510600574772
0.515611122387
0.518927181062
0.521913247401
0.524880538737
0.527816661181
0.530670034089
0.533556929717
0.536419299133
0.539188359528
0.541988195121
0.544748288066
0.547406186493
0.550068691312
0.552673224684
0.555134368522
0.557580855125
0.559924032929
0.562099204784
0.564217093013
0.566204216418
0.568055926697
0.569680355475
0.571219736075
0.572592339767
0.573786188587
0.574792664127
0.575605702067
0.576224129965
0.576643410318
0.576938690821
9.99867023219e-266
9.9986702322e-266
9.9986702322e-266
9.9986702322e-266
9.9986702322e-266
9.9986702322e-266
9.99867023221e-266
9.99867023221e-266
9.99867023221e-266
9.99867023221e-266
9.99867023221e-266
9.99867023222e-266
9.99867023222e-266
9.99867023222e-266
9.99867023222e-266
9.99867023222e-266
9.99867023223e-266
9.99867023223e-266
9.99867023223e-266
9.99867023223e-266
9.99867023223e-266
9.99867023224e-266
9.99867023224e-266
9.99867023224e-266
9.99867023224e-266
9.99867023225e-266
9.9986702327e-266
9.99867026427e-266
9.99867244868e-266
9.99881368115e-266
1.00081119742e-265
1.02228396321e-265
1.20722524667e-63
2.14286783538e-09
0.00737971729737
0.237981245911
0.391774557622
0.462061322171
0.48968973144
0.501224160219
0.506257656034
0.509718427084
0.512975316345
0.516156105017
0.519247566703
0.522358186011
0.525374065498
0.528421198711
0.531429382531
0.534332648848
0.537258105686
0.540126595772
0.542870360158
0.545604235519
0.548252894937
0.5507356245
0.553189156794
0.555516719029
0.557723050509
0.559717431111
0.561646309915
0.56340504253
0.565002288282
0.56634987714
0.567590603865
0.568635183598
0.569479175158
0.570121119754
0.570558445392
0.570859917431
9.99867023216e-266
9.99867023216e-266
9.99867023216e-266
9.99867023216e-266
9.99867023216e-266
9.99867023217e-266
9.99867023217e-266
9.99867023217e-266
9.99867023217e-266
9.99867023217e-266
9.99867023218e-266
9.99867023218e-266
9.99867023218e-266
9.99867023218e-266
9.99867023218e-266
9.99867023219e-266
9.99867023219e-266
9.99867023219e-266
9.99867023219e-266
9.99867023219e-266
9.99867023219e-266
9.9986702322e-266
9.9986702322e-266
9.9986702322e-266
9.9986702322e-266
9.99867023221e-266
9.99867023286e-266
9.9986702775e-266
9.99867332296e-266
9.99886828908e-266
1.00117801475e-265
1.02883459509e-265
4.17919506975e-63
4.20599781834e-08
0.0177425728671
0.246189009935
0.389584045896
0.455011191068
0.480946469255
0.491398405422
0.496344241646
0.500048110314
0.503552306454
0.506924649076
0.51030582985
0.513580590554
0.516862692997
0.520094053901
0.52322313402
0.526359180551
0.529375537841
0.532395875677
0.535345433755
0.538149706234
0.54093153079
0.543604905075
0.546091390007
0.548523326377
0.550813250364
0.552959510201
0.554882882725
0.556713889791
0.558362478015
0.559830037515
0.561031899413
0.56211649049
0.56299241646
0.563659753765
0.564115687622
0.564422807256
9.99867023212e-266
9.99867023212e-266
9.99867023213e-266
9.99867023213e-266
9.99867023213e-266
9.99867023213e-266
9.99867023213e-266
9.99867023214e-266
9.99867023214e-266
9.99867023214e-266
9.99867023214e-266
9.99867023214e-266
9.99867023215e-266
9.99867023215e-266
9.99867023215e-266
9.99867023215e-266
9.99867023215e-266
9.99867023215e-266
9.99867023216e-266
9.99867023216e-266
9.99867023216e-266
9.99867023216e-266
9.99867023216e-266
9.99867023216e-266
9.99867023217e-266
9.99867023218e-266
9.99867023313e-266
9.99867029758e-266
9.99867466814e-266
9.99895468266e-266
1.0017416696e-265
1.03787719586e-265
5.08367727811e-47
2.76756096754e-07
0.0329644971176
0.254502351733
0.387591889659
0.447287786388
0.471403271281
0.48112828611
0.486062168795
0.489975086744
0.493657472963
0.497326879758
0.500879854924
0.50443760301
0.507941733159
0.511319519553
0.514703415629
0.517955876734
0.521206734439
0.524309864332
0.527400225857
0.530409133391
0.533239829518
0.536035081562
0.53870175358
0.541160070567
0.54354291934
0.545777747592
0.547849107008
0.549672328444
0.551385688605
0.552904201668
0.554221297164
0.555255961813
0.556164531397
0.556857893593
0.557335462755
0.557650667927
9.99867023209e-266
9.99867023209e-266
9.9986702321e-266
9.9986702321e-266
9.9986702321e-266
9.9986702321e-266
9.9986702321e-266
9.99867023211e-266
9.99867023211e-266
9.99867023211e-266
9.99867023211e-266
9.99867023211e-266
9.99867023211e-266
9.99867023212e-266
9.99867023212e-266
9.99867023212e-266
9.99867023212e-266
9.99867023212e-266
9.99867023212e-266
9.99867023213e-266
9.99867023213e-266
9.99867023213e-266
9.99867023213e-266
9.99867023213e-266
9.99867023213e-266
9.99867023216e-266
9.99867023359e-266
9.99867033067e-266
9.99867691427e-266
9.99909634319e-266
1.00265888344e-265
1.05096916557e-265
5.91394803734e-41
1.26306446073e-06
0.0501795785317
0.262725648537
0.385999278147
0.439131396856
0.460983721895
0.470337970948
0.475318476216
0.479482335742
0.483439704768
0.48736737174
0.491165903956
0.494944573823
0.498600542158
0.502231335609
0.505741062617
0.509243750448
0.512598299728
0.515935283929
0.519116174428
0.522264885379
0.525290706389
0.528130079591
0.530902567382
0.533531513475
0.535929088962
0.538247126126
0.540388585669
0.542276251128
0.544048774793
0.545621657452
0.546986020527
0.54813723992
0.54900010355
0.549722800548
0.550222649693
0.550546060245
9.99867023206e-266
9.99867023207e-266
9.99867023207e-266
9.99867023207e-266
9.99867023207e-266
9.99867023207e-266
9.99867023208e-266
9.99867023208e-266
9.99867023208e-266
9.99867023208e-266
9.99867023208e-266
9.99867023208e-266
9.99867023209e-266
9.99867023209e-266
9.99867023209e-266
9.99867023209e-266
9.99867023209e-266
9.99867023209e-266
9.9986702321e-266
9.9986702321e-266
9.9986702321e-266
9.9986702321e-266
9.9986702321e-266
9.9986702321e-266
9.99867023211e-266
9.99867023214e-266
9.99867023439e-266
9.99867038638e-266
9.99868063674e-266
9.99932843329e-266
1.00410520255e-265
1.06958937849e-265
1.13416016816e-29
4.49979528597e-06
0.0685388045108
0.26999159023
0.382426775456
0.430221853377
0.450460432757
0.459143473163
0.464215715553
0.46858263729
0.472863537804
0.476991304621
0.481092446265
0.485049416657
0.488918866258
0.492767875348
0.49645702787
0.500137542902
0.503727098819
0.507159721112
0.510550778553
0.513760718533
0.516928984703
0.519884245127
0.52277336113
0.525505010392
0.527993336762
0.530388917699
0.532600074773
0.534625506004
0.5363834342
0.538008014033
0.539415347396
0.540605069092
0.541575015369
0.542240456
0.542758201847
0.543087207927
9.99867023204e-266
9.99867023204e-266
9.99867023204e-266
9.99867023205e-266
9.99867023205e-266
9.99867023205e-266
9.99867023205e-266
9.99867023205e-266
9.99867023205e-266
9.99867023206e-266
9.99867023206e-266
9.99867023206e-266
9.99867023206e-266
9.99867023206e-266
9.99867023206e-266
9.99867023207e-266
9.99867023207e-266
9.99867023207e-266
9.99867023207e-266
9.99867023207e-266
9.99867023207e-266
9.99867023207e-266
9.99867023208e-266
9.99867023208e-266
9.99867023208e-266
9.99867023213e-266
9.9986702358e-266
9.99867048255e-266
9.99868695559e-266
9.99971051592e-266
1.00632950841e-265
1.93648385766e-101
6.93389846812e-25
1.50252004077e-05
0.0887259005119
0.278322448757
0.377850879746
0.421355569755
0.439154952104
0.447555262922
0.452766938848
0.457441285825
0.461921213463
0.466351829545
0.470627400931
0.474805242542
0.478954763552
0.482951762093
0.486913847261
0.490712015892
0.494484061852
0.498066933719
0.501611250434
0.504952564465
0.508234803439
0.511379940942
0.51430105247
0.517130444713
0.519793503499
0.522192096278
0.524488102871
0.526579838912
0.528392025271
0.53007057063
0.531524769107
0.532751714182
0.533753082453
0.5344439668
0.534980991321
0.535314697737
9.99867023202e-266
9.99867023202e-266
9.99867023202e-266
9.99867023202e-266
9.99867023202e-266
9.99867023203e-266
9.99867023203e-266
9.99867023203e-266
9.99867023203e-266
9.99867023203e-266
9.99867023203e-266
9.99867023204e-266
9.99867023204e-266
9.99867023204e-266
9.99867023204e-266
9.99867023204e-266
9.99867023204e-266
9.99867023205e-266
9.99867023205e-266
9.99867023205e-266
9.99867023205e-266
9.99867023205e-266
9.99867023205e-266
9.99867023205e-266
9.99867023206e-266
9.99867023215e-266
9.99867023836e-266
9.99867064949e-266
9.99869734539e-266
1.00003315149e-265
1.00930671411e-265
9.15591520028e-100
8.9797185247e-22
4.48606927903e-05
0.110614990079
0.283785260265
0.373682533273
0.41190059686
0.427775391387
0.435561366136
0.440966958621
0.44588451073
0.450711378858
0.455348356804
0.459871000484
0.464348220385
0.468646536075
0.472904095252
0.476991339657
0.48096798026
0.484900577522
0.488645864519
0.492334979244
0.495903025842
0.499250145981
0.502510300189
0.505531970722
0.508454243058
0.511204079464
0.513680153859
0.516038558255
0.51819834983
0.520062636761
0.521792433048
0.523293726012
0.524562604968
0.525599269165
0.526313405219
0.526872654652
0.52721823856
9.998670232e-266
9.998670232e-266
9.998670232e-266
9.998670232e-266
9.998670232e-266
9.99867023201e-266
9.99867023201e-266
9.99867023201e-266
9.99867023201e-266
9.99867023201e-266
9.99867023201e-266
9.99867023202e-266
9.99867023202e-266
9.99867023202e-266
9.99867023202e-266
9.99867023202e-266
9.99867023202e-266
9.99867023202e-266
9.99867023203e-266
9.99867023203e-266
9.99867023203e-266
9.99867023203e-266
9.99867023203e-266
9.99867023203e-266
9.99867023204e-266
9.9986702322e-266
9.99867024304e-266
9.99867096261e-266
9.99871909409e-266
1.00019526887e-265
1.01303853919e-265
2.24118188599e-99
4.59267244898e-19
0.000135922524004
0.132009178435
0.2890726269
0.368368992428
0.401254338236
0.416018460945
0.423378350865
0.428927408286
0.4341107092
0.439150379822
0.444057866674
0.448901671168
0.453552828158