/*--------------------------------*- C++ -*----------------------------------*\
| =========                 |                                                 |
| \\      /  F ield         | foam-extend: Open Source CFD                    |
|  \\    /   O peration     | Version:     4.1                                |
|   \\  /    A nd           | Web:         http://www.foam-extend.org         |
|    \\/     M anipulation  |                                                 |
\*---------------------------------------------------------------------------*/
FoamFile
{
    version     2.0;
    format      ascii;
    class       volScalarField;
    location    "0.0002";
    object      O;
}
// * * * * * * * * * * * * * * * * * * * * * * * * * * * * * * * * * * * * * //

dimensions      [0 0 0 0 0 0 0];

internalField   nonuniform List<scalar> 
8400
(
7.23199833443e-54
7.23199833447e-54
7.2319983345e-54
7.23199833454e-54
7.23199833458e-54
7.23199833461e-54
7.23199833465e-54
7.23199833468e-54
7.23199833472e-54
7.23199833475e-54
7.23199833478e-54
7.23199833482e-54
7.23199833485e-54
7.23199833488e-54
7.23199833491e-54
7.23199833494e-54
7.23199833497e-54
7.231998335e-54
7.23199833503e-54
7.23199833506e-54
7.23199833508e-54
7.23199833511e-54
7.23199833514e-54
7.23199833516e-54
7.23199833519e-54
7.23199833522e-54
7.23199833524e-54
7.23199833527e-54
7.2319983354e-54
7.23199834309e-54
7.23199888362e-54
7.23203493348e-54
7.23443972139e-54
7.30480583761e-54
8.57154123661e-19
0.177350446478
0.232126751258
0.183706989386
0.13191143716
0.101185030518
0.0873731571072
0.081880294588
0.0800056944281
0.0791746882051
0.078608808916
0.0780878116773
0.0775943950356
0.0770695331739
0.0765302366328
0.075973112674
0.075422746588
0.0748331374936
0.0742286195453
0.0736096686622
0.0729783289625
0.0723593255024
0.0717111449044
0.0710645821168
0.070423756711
0.069797969122
0.0692191701128
0.0686439181231
0.0681046135877
0.0676132422494
0.0671750097294
0.0667968087276
0.0664841452331
0.0662441042939
0.0660788694394
0.0658856203665
7.23199832852e-54
7.23199832853e-54
7.23199832855e-54
7.23199832856e-54
7.23199832857e-54
7.23199832859e-54
7.2319983286e-54
7.23199832862e-54
7.23199832863e-54
7.23199832864e-54
7.23199832866e-54
7.23199832867e-54
7.23199832868e-54
7.23199832869e-54
7.23199832871e-54
7.23199832872e-54
7.23199832873e-54
7.23199832874e-54
7.23199832876e-54
7.23199832877e-54
7.23199832878e-54
7.23199832879e-54
7.2319983288e-54
7.23199832881e-54
7.23199832882e-54
7.23199832883e-54
7.23199832884e-54
7.23199832886e-54
7.23199832977e-54
7.23199839134e-54
7.23200261164e-54
7.23227155887e-54
7.2500074964e-54
7.52757369984e-54
0.000157724201384
0.231482168158
0.213628691378
0.155663192065
0.112830239499
0.0908735647539
0.0821336390254
0.0790467641878
0.0780001109611
0.0774378085008
0.0769678208562
0.076484092875
0.0760043031082
0.0754793548776
0.0749337500471
0.0743670953033
0.0737808835589
0.0731786597167
0.0725604632766
0.0719311918337
0.0712910592404
0.070668111603
0.0700198030042
0.06937962927
0.0687520264362
0.0681452005877
0.0675630099303
0.0670137229378
0.0665055240688
0.0660691798161
0.065662803836
0.0653148891313
0.0650293461922
0.0648095024194
0.0646593622367
0.0645080817598
7.23199832665e-54
7.23199832665e-54
7.23199832666e-54
7.23199832667e-54
7.23199832668e-54
7.23199832669e-54
7.2319983267e-54
7.2319983267e-54
7.23199832671e-54
7.23199832672e-54
7.23199832673e-54
7.23199832674e-54
7.23199832674e-54
7.23199832675e-54
7.23199832676e-54
7.23199832676e-54
7.23199832677e-54
7.23199832678e-54
7.23199832679e-54
7.23199832679e-54
7.2319983268e-54
7.23199832681e-54
7.23199832681e-54
7.23199832682e-54
7.23199832682e-54
7.23199832683e-54
7.23199832684e-54
7.2319983269e-54
7.2319983308e-54
7.23199859561e-54
7.23201681846e-54
7.23326641021e-54
7.2858572788e-54
4.14433757226e-19
0.0979996607918
0.232030099825
0.190303024898
0.135540858062
0.101512490915
0.0857895901988
0.0799435254368
0.0779648851901
0.0772803644734
0.0767872007698
0.0763366945117
0.0758698721355
0.0754013658849
0.0748869632054
0.0743502813936
0.0737917133051
0.0732157087543
0.0726219518513
0.0720160204289
0.0714000837381
0.0707729795952
0.0701683624546
0.0695436791019
0.068929215653
0.0683339311229
0.067758500297
0.0672074479285
0.0666907550904
0.0662141891487
0.0658093820054
0.0654335486997
0.0651142233788
0.0648520123728
0.0646510361802
0.0645141450587
0.0643853044492
7.2319983258e-54
7.2319983258e-54
7.23199832581e-54
7.23199832582e-54
7.23199832582e-54
7.23199832583e-54
7.23199832583e-54
7.23199832584e-54
7.23199832585e-54
7.23199832585e-54
7.23199832586e-54
7.23199832586e-54
7.23199832587e-54
7.23199832587e-54
7.23199832588e-54
7.23199832588e-54
7.23199832589e-54
7.23199832589e-54
7.2319983259e-54
7.2319983259e-54
7.23199832591e-54
7.23199832591e-54
7.23199832592e-54
7.23199832592e-54
7.23199832592e-54
7.23199832593e-54
7.23199832594e-54
7.23199832613e-54
7.23199833984e-54
7.23199929496e-54
7.23206159622e-54
7.2362174616e-54
7.33626817507e-54
2.96642511281e-13
0.229064784279
0.229993834728
0.173929815103
0.123841956577
0.0958190698889
0.0837763559944
0.0793774641125
0.0779811203978
0.0773693411472
0.0768645021469
0.0764132114489
0.0759264578887
0.0754196273783
0.074893312074
0.07434627694
0.0737798205744
0.0731976430818
0.0725996779032
0.0719908259251
0.071373277948
0.0707736083129
0.0701481903656
0.0695323670951
0.068928852743
0.068346116354
0.0677861162889
0.0672509396045
0.0667761899861
0.0663148351437
0.0659027499602
0.0655427638116
0.0652373507478
0.0649884494081
0.0647983654656
0.0646699756629
0.0645519376034
7.23199832533e-54
7.23199832534e-54
7.23199832534e-54
7.23199832535e-54
7.23199832535e-54
7.23199832535e-54
7.23199832536e-54
7.23199832536e-54
7.23199832537e-54
7.23199832537e-54
7.23199832538e-54
7.23199832538e-54
7.23199832538e-54
7.23199832539e-54
7.23199832539e-54
7.2319983254e-54
7.2319983254e-54
7.2319983254e-54
7.23199832541e-54
7.23199832541e-54
7.23199832541e-54
7.23199832542e-54
7.23199832542e-54
7.23199832543e-54
7.23199832543e-54
7.23199832543e-54
7.23199832544e-54
7.23199832588e-54
7.23199835673e-54
7.23200053215e-54
7.2321442822e-54
7.24193990837e-54
7.42757397529e-54
1.33122774621e-07
0.231121323576
0.220695169241
0.162867674604
0.117012467134
0.0930961208182
0.0831997487438
0.0796228974674
0.0785057529393
0.0779275512708
0.0774237296638
0.0769194262503
0.0764047689466
0.0758738031797
0.075323287077
0.0747562618093
0.0741713320917
0.0735725296825
0.0729614471353
0.0723379382683
0.0717333545031
0.0711027242148
0.0704747350784
0.0698554397832
0.0692515669252
0.0686673952368
0.0681345248617
0.0676052647944
0.0671127678302
0.0666604628282
0.066252990674
0.065897285793
0.0655961838645
0.0653518802981
0.0651665161889
0.0650415067092
0.0649280653205
7.23199832504e-54
7.23199832504e-54
7.23199832505e-54
7.23199832505e-54
7.23199832505e-54
7.23199832506e-54
7.23199832506e-54
7.23199832506e-54
7.23199832507e-54
7.23199832507e-54
7.23199832507e-54
7.23199832508e-54
7.23199832508e-54
7.23199832508e-54
7.23199832509e-54
7.23199832509e-54
7.23199832509e-54
7.2319983251e-54
7.2319983251e-54
7.2319983251e-54
7.23199832511e-54
7.23199832511e-54
7.23199832511e-54
7.23199832511e-54
7.23199832512e-54
7.23199832512e-54
7.23199832513e-54
7.23199832593e-54
7.23199838167e-54
7.2320022756e-54
7.23225515193e-54
7.2492193533e-54
7.52221024869e-54
0.000121202456233
0.231480525454
0.213639435169
0.155937702991
0.11350574085
0.0919712714813
0.0834024010151
0.0803923483767
0.0793748043649
0.0787980070069
0.0782758668376
0.0777482095364
0.0772064959572
0.0766477187167
0.0760730437955
0.075480896449
0.0748732539177
0.0742521968946
0.0736205999987
0.0730059119561
0.0723636333738
0.0717201012672
0.0710835079911
0.0704566019183
0.0698448407501
0.0692808998114
0.0687177719019
0.0681868425564
0.0676902305067
0.0672353719964
0.0668282791504
0.0664732372488
0.0661728860117
0.0659288284499
0.0657688093261
0.0656416164856
0.0655022908865
7.23199832484e-54
7.23199832484e-54
7.23199832484e-54
7.23199832485e-54
7.23199832485e-54
7.23199832485e-54
7.23199832486e-54
7.23199832486e-54
7.23199832486e-54
7.23199832487e-54
7.23199832487e-54
7.23199832487e-54
7.23199832487e-54
7.23199832488e-54
7.23199832488e-54
7.23199832488e-54
7.23199832488e-54
7.23199832489e-54
7.23199832489e-54
7.23199832489e-54
7.2319983249e-54
7.2319983249e-54
7.2319983249e-54
7.2319983249e-54
7.2319983249e-54
7.23199832491e-54
7.23199832493e-54
7.23199832614e-54
7.23199841062e-54
7.23200424158e-54
7.23237736299e-54
7.25684824797e-54
7.61406597658e-54
0.0030091320563
0.231652255177
0.208118331178
0.151338557496
0.111391488208
0.0920911347732
0.0841326201374
0.0815005594508
0.0805461234565
0.0799588277279
0.0794086756739
0.0788515080366
0.078279128282
0.0776906183604
0.0770861420096
0.0764670333668
0.0758349692522
0.075213578325
0.0745608220835
0.0739028618922
0.0732415598094
0.0725844208944
0.0719330976064
0.071294053303
0.0706959456133
0.0700965974795
0.0695255906281
0.0689850510585
0.0684837570719
0.0680244986614
0.0676125554589
0.0672791853527
0.0669746769875
0.0667280245608
0.0665405314357
0.0664134972899
0.0663005027474
7.23199832469e-54
7.23199832469e-54
7.2319983247e-54
7.2319983247e-54
7.2319983247e-54
7.2319983247e-54
7.23199832471e-54
7.23199832471e-54
7.23199832471e-54
7.23199832472e-54
7.23199832472e-54
7.23199832472e-54
7.23199832472e-54
7.23199832473e-54
7.23199832473e-54
7.23199832473e-54
7.23199832473e-54
7.23199832473e-54
7.23199832474e-54
7.23199832474e-54
7.23199832474e-54
7.23199832474e-54
7.23199832475e-54
7.23199832475e-54
7.23199832475e-54
7.23199832475e-54
7.23199832478e-54
7.23199832645e-54
7.23199844118e-54
7.2320062442e-54
7.23249788787e-54
7.26396132155e-54
7.69843642293e-54
0.0159223827373
0.231758447253
0.204001053927
0.148462241611
0.11086548085
0.0923969937353
0.0853162590654
0.0829079654233
0.0819860174586
0.0813734633275
0.0807848251161
0.0801918709973
0.0795842304611
0.0789656319258
0.0783320478189
0.0776829770454
0.0770469774613
0.0763764288576
0.0757000649163
0.0750177832076
0.0743371377944
0.0736599321498
0.0730177961597
0.0723635898997
0.0717291445835
0.0711182933396
0.0705332343852
0.0699838565019
0.0694727437331
0.0690304233629
0.0686123259576
0.0682483664366
0.0679398757446
0.067688921422
0.0674974226103
0.0673674932433
0.0672535104882
7.23199832458e-54
7.23199832458e-54
7.23199832458e-54
7.23199832459e-54
7.23199832459e-54
7.23199832459e-54
7.23199832459e-54
7.2319983246e-54
7.2319983246e-54
7.2319983246e-54
7.2319983246e-54
7.23199832461e-54
7.23199832461e-54
7.23199832461e-54
7.23199832461e-54
7.23199832461e-54
7.23199832462e-54
7.23199832462e-54
7.23199832462e-54
7.23199832462e-54
7.23199832462e-54
7.23199832463e-54
7.23199832463e-54
7.23199832463e-54
7.23199832463e-54
7.23199832463e-54
7.23199832467e-54
7.2319983268e-54
7.23199847156e-54
7.23200818447e-54
7.23261102694e-54
7.27026827095e-54
7.44601192676e-20
0.0322995298819
0.231841461866
0.201040955005
0.146471550241
0.110707517265
0.0935878840858
0.0868120685581
0.0845206111938
0.0836276239595
0.0829920103049
0.0823773813197
0.0817525328122
0.0811127339261
0.0804578822962
0.0797897668247
0.0791336759364
0.0784450122751
0.0777464106726
0.0770438699794
0.0763366082892
0.0756313219414
0.0749566130655
0.0742695150268
0.0735982704984
0.0729488979923
0.0723218481297
0.0717247736588
0.0711878089958
0.0706645066323
0.0701881951861
0.0697632063562
0.0693921015718
0.0690769422744
0.0688209148735
0.0686266763768
0.0684953145374
0.0683821710639
7.23199832449e-54
7.23199832449e-54
7.2319983245e-54
7.2319983245e-54
7.2319983245e-54
7.2319983245e-54
7.23199832451e-54
7.23199832451e-54
7.23199832451e-54
7.23199832451e-54
7.23199832451e-54
7.23199832452e-54
7.23199832452e-54
7.23199832452e-54
7.23199832452e-54
7.23199832452e-54
7.23199832453e-54
7.23199832453e-54
7.23199832453e-54
7.23199832453e-54
7.23199832453e-54
7.23199832453e-54
7.23199832454e-54
7.23199832454e-54
7.23199832454e-54
7.23199832454e-54
7.23199832458e-54
7.23199832718e-54
7.23199850192e-54
7.23201006475e-54
7.23272758722e-54
7.27568866897e-54
1.66811103794e-19
0.0506478938083
0.231899364578
0.198357889218
0.145202869534
0.110887726231
0.0951305407181
0.08863799317
0.0864388748708
0.0855389817725
0.0848580922617
0.0841985021596
0.0835303365969
0.0828503751125
0.0821560841339
0.0814739569788
0.0807584509403
0.0800376017601
0.0793085919707
0.0785759154111
0.0778392725333
0.077131210248
0.0764095883503
0.0757021062629
0.0750109189772
0.074342251721
0.0737210931547
0.0731073000569
0.0725306870941
0.071998386735
0.0715129639865
0.0710778509301
0.0706964382454
0.0704005398492
0.0701386449876
0.0699404152665
0.0698064592047
0.0696942881585
7.23199832442e-54
7.23199832442e-54
7.23199832443e-54
7.23199832443e-54
7.23199832443e-54
7.23199832443e-54
7.23199832443e-54
7.23199832444e-54
7.23199832444e-54
7.23199832444e-54
7.23199832444e-54
7.23199832444e-54
7.23199832444e-54
7.23199832445e-54
7.23199832445e-54
7.23199832445e-54
7.23199832445e-54
7.23199832445e-54
7.23199832446e-54
7.23199832446e-54
7.23199832446e-54
7.23199832446e-54
7.23199832446e-54
7.23199832446e-54
7.23199832446e-54
7.23199832447e-54
7.23199832451e-54
7.23199832761e-54
7.23199853402e-54
7.23201218267e-54
7.23290957789e-54
7.28081138616e-54
2.74366126872e-19
0.0706087287071
0.231948566114
0.196509443869
0.14460487293
0.11164491351
0.0967619035789
0.0907833525345
0.0885957085382
0.0876402460214
0.0869123602139
0.0862083306238
0.0854986289602
0.0847761726075
0.0840665763676
0.0833230436475
0.082572271001
0.0818134005173
0.081048796655
0.0803050251001
0.0795385596888
0.0787773310617
0.0780315486937
0.0773000136107
0.0766139834815
0.075920769661
0.0752568039646
0.074625198393
0.0740343321316
0.0734891003958
0.0730168437645
0.0725716327191
0.0721803801554
0.0718492097352
0.071581855315
0.0713797092228
0.0712436944751
0.0711325593734
7.23199832436e-54
7.23199832437e-54
7.23199832437e-54
7.23199832437e-54
7.23199832437e-54
7.23199832437e-54
7.23199832437e-54
7.23199832438e-54
7.23199832438e-54
7.23199832438e-54
7.23199832438e-54
7.23199832438e-54
7.23199832439e-54
7.23199832439e-54
7.23199832439e-54
7.23199832439e-54
7.23199832439e-54
7.23199832439e-54
7.23199832439e-54
7.2319983244e-54
7.2319983244e-54
7.2319983244e-54
7.2319983244e-54
7.2319983244e-54
7.2319983244e-54
7.23199832441e-54
7.23199832446e-54
7.23199832814e-54
7.23199857489e-54
7.23201531661e-54
7.23315886462e-54
7.28619188564e-54
3.82364982675e-19
0.0916738866951
0.231993324435
0.194596608952
0.144133552393
0.112951151109
0.0987946175742
0.0929465691158
0.0909286852223
0.0899557573901
0.0891724045188
0.0884188909144
0.0876592940144
0.08689141772
0.0861368905898
0.0853496357524
0.084558839883
0.08376137268
0.0829845789145
0.082181375933
0.0813816458985
0.0805891677599
0.0798120282218
0.079078502492
0.0783432342919
0.0776304974524
0.0769459410623
0.0763221154107
0.0757140638581
0.0751524530399
0.0746432129246
0.0741882708749
0.0737878740388
0.0734480679882
0.0731720251164
0.0729905429742
0.072849552061
0.0727384970337
7.23199832432e-54
7.23199832432e-54
7.23199832432e-54
7.23199832432e-54
7.23199832432e-54
7.23199832432e-54
7.23199832433e-54
7.23199832433e-54
7.23199832433e-54
7.23199832433e-54
7.23199832433e-54
7.23199832433e-54
7.23199832434e-54
7.23199832434e-54
7.23199832434e-54
7.23199832434e-54
7.23199832434e-54
7.23199832434e-54
7.23199832434e-54
7.23199832435e-54
7.23199832435e-54
7.23199832435e-54
7.23199832435e-54
7.23199832435e-54
7.23199832435e-54
7.23199832435e-54
7.23199832442e-54
7.23199832883e-54
7.23199863176e-54
7.2320196203e-54
7.23347017618e-54
7.29217718269e-54
5.04010409768e-19
0.115538543068
0.232036536411
0.192925710616
0.144207635139
0.114253985314
0.100862621458
0.0954599794509
0.093461967826
0.0924523738948
0.091621203668
0.0908110409303
0.0900002899555
0.0892029990558
0.0883749367957
0.0875449507622
0.0867084816815
0.0858936283982
0.085053877517
0.0842160424206
0.0833806690184
0.0825806282651
0.0817728850614
0.0809852900959
0.0802229163424
0.0795110054693
0.0788042032749
0.0781356298923
0.0775093034673
0.0769334844631
0.0764096292744
0.0759665658484
0.0755565992996
0.0752102051367
0.0749284777649
0.0747142269079
0.0745692873754
0.0744557555311
7.23199832427e-54
7.23199832428e-54
7.23199832428e-54
7.23199832428e-54
7.23199832428e-54
7.23199832428e-54
7.23199832428e-54
7.23199832429e-54
7.23199832429e-54
7.23199832429e-54
7.23199832429e-54
7.23199832429e-54
7.23199832429e-54
7.23199832429e-54
7.2319983243e-54
7.2319983243e-54
7.2319983243e-54
7.2319983243e-54
7.2319983243e-54
7.2319983243e-54
7.2319983243e-54
7.2319983243e-54
7.23199832431e-54
7.23199832431e-54
7.23199832431e-54
7.23199832431e-54
7.23199832439e-54
7.23199832986e-54
7.23199871541e-54
7.23202549412e-54
7.23386452637e-54
7.2993811411e-54
6.50963127434e-19
0.142762862397
0.232082984439
0.191373183558
0.144225161801
0.115956523736
0.10318440069
0.0980813815401
0.0961494060065
0.0951221710983
0.0942387665601
0.093370524767
0.0925228286728
0.0916510539797
0.0907743372715
0.0898941331308
0.0890365299044
0.0881520562265
0.0872731471176
0.0863957363633
0.0855497001447
0.0846929980105
0.0838528760578
0.0830365879451
0.0822691467422
0.0815080061845
0.0807780893964
0.0800904480747
0.0794723880312
0.0788783017357
0.0783376336462
0.0778546909717
0.077434194496
0.0770788514399
0.076790263377
0.076599202523
0.0764490752586
0.0763327780612
7.23199832424e-54
7.23199832424e-54
7.23199832424e-54
7.23199832424e-54
7.23199832425e-54
7.23199832425e-54
7.23199832425e-54
7.23199832425e-54
7.23199832425e-54
7.23199832425e-54
7.23199832425e-54
7.23199832426e-54
7.23199832426e-54
7.23199832426e-54
7.23199832426e-54
7.23199832426e-54
7.23199832426e-54
7.23199832426e-54
7.23199832426e-54
7.23199832427e-54
7.23199832427e-54
7.23199832427e-54
7.23199832427e-54
7.23199832427e-54
7.23199832427e-54
7.23199832427e-54
7.23199832437e-54
7.23199833144e-54
7.23199883709e-54
7.23203354922e-54
7.23439150727e-54
7.30811026568e-54
8.43298346182e-19
0.17464985713
0.232114986521
0.189763170219
0.144369076782
0.117731138929
0.105714397928
0.100887626675
0.0990239515723
0.097955378344
0.0970103409644
0.0961044560652
0.0951784642477
0.0942512895356
0.093324026277
0.0924177293181
0.0914869156866
0.090560240393
0.0896592787625
0.0887418543952
0.0878349410575
0.0869422276436
0.0860936932005
0.085246796916
0.0844261944607
0.0836386368592
0.0829138543685
0.0822027522743
0.081542288253
0.0809308536205
0.0804035392743
0.0799053128934
0.0794702903767
0.0791044571691
0.0788089035541
0.0785842905966
0.0784314242559
0.0783162063045
7.23199832421e-54
7.23199832421e-54
7.23199832421e-54
7.23199832421e-54
7.23199832421e-54
7.23199832422e-54
7.23199832422e-54
7.23199832422e-54
7.23199832422e-54
7.23199832422e-54
7.23199832422e-54
7.23199832422e-54
7.23199832422e-54
7.23199832423e-54
7.23199832423e-54
7.23199832423e-54
7.23199832423e-54
7.23199832423e-54
7.23199832423e-54
7.23199832423e-54
7.23199832423e-54
7.23199832424e-54
7.23199832424e-54
7.23199832424e-54
7.23199832424e-54
7.23199832424e-54
7.23199832437e-54
7.23199833374e-54
7.23199900167e-54
7.23204402983e-54
7.23507403711e-54
7.31956519141e-54
1.08264035178e-18
0.207327685398
0.232109118988
0.188175767547
0.144824864727
0.119641591119
0.108325072609
0.103834844472
0.102047493909
0.100939078025
0.0999530482082
0.0989635878336
0.0979764641126
0.0969922629506
0.0960327448885
0.0950537850118
0.0940757721503
0.0931252945897
0.0921572038556
0.0911991319543
0.0902772299001
0.0893488924865
0.0884412941161
0.0875619092425
0.0867366090554
0.0859233470202
0.0851491995143
0.0844174495291
0.0837616229676
0.0831342198462
0.0825649898518
0.0820553884325
0.0816082437508
0.0812587655977
0.0809535255429
0.0807229132644
0.0805661105648
0.080452402861
7.23199832418e-54
7.23199832418e-54
7.23199832418e-54
7.23199832419e-54
7.23199832419e-54
7.23199832419e-54
7.23199832419e-54
7.23199832419e-54
7.23199832419e-54
7.23199832419e-54
7.23199832419e-54
7.2319983242e-54
7.2319983242e-54
7.2319983242e-54
7.2319983242e-54
7.2319983242e-54
7.2319983242e-54
7.2319983242e-54
7.2319983242e-54
7.2319983242e-54
7.23199832421e-54
7.23199832421e-54
7.23199832421e-54
7.23199832421e-54
7.23199832421e-54
7.23199832421e-54
7.23199832439e-54
7.2319983371e-54
7.23199923457e-54
7.23205852695e-54
7.23600217636e-54
7.33510575224e-54
1.43048269703e-18
0.226431211811
0.231909931388
0.186206747175
0.144813592211
0.121688885546
0.111339647403
0.107037402527
0.105242841207
0.104068931385
0.103012554846
0.101958491966
0.1009110187
0.0998896025246
0.0988510987548
0.0978171796206
0.0968127971279
0.0957920715034
0.0947808571202
0.093803403815
0.0928200819129
0.0918545634884
0.0909390632135
0.0900258216975
0.0891476373747
0.0883305190551
0.0875318694066
0.0867805698712
0.0860786509981
0.0854610765799
0.0848736948752
0.0843486350194
0.0838912468072
0.0835050612374
0.0831928108431
0.0829552492123
0.0827943940431
0.0826794815898
7.23199832416e-54
7.23199832416e-54
7.23199832416e-54
7.23199832416e-54
7.23199832416e-54
7.23199832416e-54
7.23199832417e-54
7.23199832417e-54
7.23199832417e-54
7.23199832417e-54
7.23199832417e-54
7.23199832417e-54
7.23199832417e-54
7.23199832417e-54
7.23199832417e-54
7.23199832418e-54
7.23199832418e-54
7.23199832418e-54
7.23199832418e-54
7.23199832418e-54
7.23199832418e-54
7.23199832418e-54
7.23199832418e-54
7.23199832418e-54
7.23199832418e-54
7.23199832419e-54
7.23199832444e-54
7.23199834227e-54
7.23199957592e-54
7.23207933686e-54
7.23733054165e-54
7.35859784275e-54
2.01508492312e-11
0.229645271873
0.230993251279
0.184441815717
0.145353416973
0.123757581589
0.114360265196
0.110292883148
0.108524434725
0.107320449612
0.106185148879
0.105070395351
0.10398266757
0.102882243886
0.10181122696
0.100723780661
0.0996457806328
0.0986008331497
0.0975429806591
0.0965015804922
0.0955008451381
0.0944986865636
0.09352344317
0.0926062527828
0.0916963060234
0.0908303101745
0.0900066964113
0.0892601294966
0.0885357195359
0.0878733657293
0.0872703780034
0.0867609263939
0.0862909293532
0.0858944184832
0.0855738482903
0.0853301107409
0.0851642010988
0.0850482658537
7.23199832414e-54
7.23199832414e-54
7.23199832414e-54
7.23199832414e-54
7.23199832414e-54
7.23199832414e-54
7.23199832414e-54
7.23199832415e-54
7.23199832415e-54
7.23199832415e-54
7.23199832415e-54
7.23199832415e-54
7.23199832415e-54
7.23199832415e-54
7.23199832415e-54
7.23199832415e-54
7.23199832415e-54
7.23199832416e-54
7.23199832416e-54
7.23199832416e-54
7.23199832416e-54
7.23199832416e-54
7.23199832416e-54
7.23199832416e-54
7.23199832416e-54
7.23199832417e-54
7.23199832453e-54
7.23199834974e-54
7.23200006967e-54
7.23211017665e-54
7.23940214008e-54
7.39559249241e-54
7.43111446288e-11
0.230593710652
0.228943129186
0.182589303044
0.145970914949
0.125994128623
0.117281900698
0.113655741573
0.111949163191
0.110681419037
0.109478588922
0.108315480832
0.107143353004
0.106002675614
0.104852409224
0.103714333435
0.102607227388
0.101491865556
0.100414646813
0.0993305159774
0.0982671509481
0.0972523893987
0.0962412012407
0.0952656084156
0.0943549480775
0.093460182573
0.0926140816831
0.0918187002271
0.0911037843101
0.0904213282948
0.0898054252842
0.089255821512
0.0888051231621
0.0883977528452
0.0880682275206
0.0878172928725
0.0876459480144
0.0875293933076
7.23199832412e-54
7.23199832412e-54
7.23199832412e-54
7.23199832412e-54
7.23199832412e-54
7.23199832412e-54
7.23199832412e-54
7.23199832413e-54
7.23199832413e-54
7.23199832413e-54
7.23199832413e-54
7.23199832413e-54
7.23199832413e-54
7.23199832413e-54
7.23199832413e-54
7.23199832413e-54
7.23199832414e-54
7.23199832414e-54
7.23199832414e-54
7.23199832414e-54
7.23199832414e-54
7.23199832414e-54
7.23199832414e-54
7.23199832414e-54
7.23199832414e-54
7.23199832415e-54
7.23199832469e-54
7.23199836109e-54
7.23200082936e-54
7.23215896737e-54
7.24258537704e-54
7.44666051977e-54
1.34845613191e-07
0.231020771612
0.226004610218
0.180692748376
0.146529084588
0.128419208737
0.120429422399
0.117116454731
0.115448967633
0.114130740512
0.112886442987
0.111639545519
0.110425937164
0.109203740894
0.107993886834
0.10682196045
0.105641514484
0.104501578352
0.103355137974
0.102256041419
0.10115493438
0.100078994405
0.099061874031
0.0980535743241
0.0970878793886
0.0961945201933
0.0953253075909
0.0945075135629
0.0937468331788
0.0930755935535
0.0924425719575
0.091880066263
0.0913912346453
0.0910070176959
0.090668802595
0.0904107433014
0.0902331318685
0.0901149379036
7.2319983241e-54
7.2319983241e-54
7.2319983241e-54
7.2319983241e-54
7.23199832411e-54
7.23199832411e-54
7.23199832411e-54
7.23199832411e-54
7.23199832411e-54
7.23199832411e-54
7.23199832411e-54
7.23199832411e-54
7.23199832411e-54
7.23199832411e-54
7.23199832412e-54
7.23199832412e-54
7.23199832412e-54
7.23199832412e-54
7.23199832412e-54
7.23199832412e-54
7.23199832412e-54
7.23199832412e-54
7.23199832412e-54
7.23199832412e-54
7.23199832412e-54
7.23199832414e-54
7.23199832494e-54
7.23199837977e-54
7.23200209786e-54
7.23223897006e-54
7.2477653361e-54
7.52059733105e-54
1.8039551056e-05
0.231299347562
0.222731026431
0.17879407987
0.146970382671
0.130950186549
0.123816697421
0.120691504632
0.119041481465
0.11766525057
0.116350854425
0.115038995654
0.113760305953
0.112481312251
0.111237037267
0.109994778686
0.108787568881
0.107576201542
0.10641087271
0.105244658837
0.104128642976
0.103017187471
0.101944228672
0.100932050998
0.0999398352631
0.0989954981328
0.0981312632284
0.0972924320723
0.0965152228662
0.095828247082
0.0951810454264
0.0946057566429
0.0941056719121
0.0936831423702
0.0933661449837
0.0931005955339
0.0929170076591
0.0927975395263
7.23199832409e-54
7.23199832409e-54
7.23199832409e-54
7.23199832409e-54
7.23199832409e-54
7.23199832409e-54
7.23199832409e-54
7.23199832409e-54
7.23199832409e-54
7.23199832409e-54
7.2319983241e-54
7.2319983241e-54
7.2319983241e-54
7.2319983241e-54
7.2319983241e-54
7.2319983241e-54
7.2319983241e-54
7.2319983241e-54
7.2319983241e-54
7.2319983241e-54
7.23199832411e-54
7.23199832411e-54
7.23199832411e-54
7.23199832411e-54
7.23199832411e-54
7.23199832413e-54
7.2319983254e-54
7.23199841124e-54
7.23200420012e-54
7.23237004279e-54
7.25593341356e-54
7.6257548589e-54
0.00149696002966
0.231497979046
0.219251238092
0.177103414452
0.147971987566
0.133679672025
0.127183757857
0.124341534684
0.122692769466
0.121273964531
0.119875217583
0.118518069248
0.117161871153
0.115844862368
0.1145502731
0.113253481926
0.112002516494
0.110747503543
0.109516507423
0.108333700943
0.107158520692
0.106041443866
0.104933442086
0.10389536011
0.10287575505
0.10190818394
0.101021946175
0.100166054614
0.09937294044
0.0986441387801
0.09801006013
0.0974227842371
0.0969128813542
0.0964811873918
0.096128968587
0.0958875000034
0.0956997886751
0.0955798693738
7.23199832407e-54
7.23199832407e-54
7.23199832407e-54
7.23199832407e-54
7.23199832408e-54
7.23199832408e-54
7.23199832408e-54
7.23199832408e-54
7.23199832408e-54
7.23199832408e-54
7.23199832408e-54
7.23199832408e-54
7.23199832408e-54
7.23199832408e-54
7.23199832409e-54
7.23199832409e-54
7.23199832409e-54
7.23199832409e-54
7.23199832409e-54
7.23199832409e-54
7.23199832409e-54
7.23199832409e-54
7.23199832409e-54
7.23199832409e-54
7.23199832409e-54
7.23199832413e-54
7.2319983262e-54
7.23199846555e-54
7.23200776869e-54
7.2325858237e-54
7.26849516603e-54
4.85149887021e-21
0.0157940861125
0.231664497008
0.215401459147
0.175133955318
0.149250160306
0.136361096757
0.130738899781
0.128056341291
0.126395501398
0.124902861019
0.123463324856
0.122030258085
0.120638665497
0.119269974946
0.117902347916
0.116577124786
0.115255836826
0.113981435653
0.112708466789
0.111492212813
0.110280941021
0.109133237793
0.10800050885
0.10690952425
0.105892675155
0.104903284021
0.103967951027
0.103122607011
0.102310553869
0.10156866285
0.100923550672
0.100325037014
0.0998049562458
0.0993656796075
0.0990062655456
0.0987587076164
0.0985662010337
0.0984464943032
7.23199832406e-54
7.23199832406e-54
7.23199832406e-54
7.23199832406e-54
7.23199832406e-54
7.23199832406e-54
7.23199832406e-54
7.23199832407e-54
7.23199832407e-54
7.23199832407e-54
7.23199832407e-54
7.23199832407e-54
7.23199832407e-54
7.23199832407e-54
7.23199832407e-54
7.23199832407e-54
7.23199832407e-54
7.23199832407e-54
7.23199832408e-54
7.23199832408e-54
7.23199832408e-54
7.23199832408e-54
7.23199832408e-54
7.23199832408e-54
7.23199832408e-54
7.23199832413e-54
7.23199832764e-54
7.23199855983e-54
7.23201363632e-54
7.23293653243e-54
7.28530891531e-54
2.35232989277e-19
0.0536111932373
0.231801650763
0.211176187044
0.173840252965
0.150405483303
0.139184519596
0.134259543285
0.13182483891
0.130140023629
0.128600653882
0.127078653065
0.125604371062
0.124155842719
0.122712622237
0.121317988991
0.119928049883
0.118585217089
0.117271169715
0.115963983911
0.114711521519
0.113471381494
0.112265059696
0.111127549837
0.110013236801
0.108975024073
0.10796698719
0.107013875608
0.106152504528
0.105329458617
0.104572857469
0.103917923276
0.103308994768
0.102779263022
0.102330715315
0.10196384513
0.101711532904
0.101514105736
0.101392245494
7.23199832405e-54
7.23199832405e-54
7.23199832405e-54
7.23199832405e-54
7.23199832405e-54
7.23199832405e-54
7.23199832405e-54
7.23199832405e-54
7.23199832406e-54
7.23199832406e-54
7.23199832406e-54
7.23199832406e-54
7.23199832406e-54
7.23199832406e-54
7.23199832406e-54
7.23199832406e-54
7.23199832406e-54
7.23199832406e-54
7.23199832406e-54
7.23199832406e-54
7.23199832407e-54
7.23199832407e-54
7.23199832407e-54
7.23199832407e-54
7.23199832407e-54
7.23199832416e-54
7.23199833029e-54
7.23199873666e-54
7.23202591888e-54
7.23385208925e-54
7.30638437242e-54
5.97142852323e-19
0.117902622978
0.231936598337
0.206976698529
0.172572868688
0.151871936292
0.142321776996
0.137837390443
0.13558481757
0.133888526715
0.132294895493
0.130733918972
0.129203088911
0.127681022977
0.126209297745
0.124766866787
0.123332835701
0.12195218505
0.120576455393
0.119261568189
0.117954344602
0.116707082045
0.115476034082
0.114317192914
0.113179331133
0.11212146478
0.11109130019
0.110122051228
0.109246291808
0.108408776443
0.107644896307
0.106980695981
0.106363467408
0.105825952955
0.105369104833
0.105026720958
0.104738946992