/*--------------------------------*- C++ -*----------------------------------*\
| =========                 |                                                 |
| \\      /  F ield         | foam-extend: Open Source CFD                    |
|  \\    /   O peration     | Version:     4.1                                |
|   \\  /    A nd           | Web:         http://www.foam-extend.org         |
|    \\/     M anipulation  |                                                 |
\*---------------------------------------------------------------------------*/
FoamFile
{
    version     2.0;
    format      ascii;
    class       volScalarField;
    location    "0.0002";
    object      O2;
}
// * * * * * * * * * * * * * * * * * * * * * * * * * * * * * * * * * * * * * //

dimensions      [0 0 0 0 0 0 0];

internalField   nonuniform List<scalar> 
8400
(
0.232918
0.232918
0.232918
0.232918
0.232918
0.232918
0.232918
0.232918
0.232918
0.232918
0.232918
0.232918
0.232918
0.232918
0.232918
0.232918
0.232918
0.232918
0.232918
0.232918
0.232918
0.232918
0.232918
0.232918
0.232918
0.232918
0.232918
0.232918
0.232918
0.232918
0.232918
0.232918
0.232918
0.232918
0.232917493537
0.0426744529713
3.98623092293e-06
1.22807602862e-07
6.02684230507e-08
4.11627068469e-08
3.50534178179e-08
3.27669066113e-08
3.17755840924e-08
3.10777160756e-08
3.04881524467e-08
2.99222449339e-08
2.93864022043e-08
2.88272443291e-08
2.82626749506e-08
2.76908264001e-08
2.71341951173e-08
2.65500362025e-08
2.59604831751e-08
2.5367393464e-08
2.47744962312e-08
2.42036434958e-08
2.36189953036e-08
2.30458820845e-08
2.24876301592e-08
2.19526373116e-08
2.14647825037e-08
2.09891483621e-08
2.0549741324e-08
2.01554393815e-08
1.9808601853e-08
1.95125861605e-08
1.92704941622e-08
1.9087564725e-08
1.89639387163e-08
1.88692290972e-08
0.232918
0.232918
0.232918
0.232918
0.232918
0.232918
0.232918
0.232918
0.232918
0.232918
0.232918
0.232918
0.232918
0.232918
0.232918
0.232918
0.232918
0.232918
0.232918
0.232918
0.232918
0.232918
0.232918
0.232918
0.232918
0.232918
0.232918
0.232918
0.232918
0.232918
0.232918
0.232918
0.232918
0.232918
0.231454042283
2.93427347942e-05
2.42997857957e-07
8.08869196477e-08
4.65817853134e-08
3.5253630208e-08
3.18933357382e-08
3.06651951154e-08
3.00529611114e-08
2.95718138776e-08
2.91207752208e-08
2.86498154404e-08
2.81831743678e-08
2.76763947797e-08
2.71543808019e-08
2.66181593529e-08
2.60698075231e-08
2.55125661071e-08
2.49470118655e-08
2.43787966706e-08
2.38098465026e-08
2.32649161144e-08
2.27073609972e-08
2.21644108627e-08
2.1639646039e-08
2.11392118207e-08
2.06660426046e-08
2.02262837028e-08
1.98249455688e-08
1.94829557412e-08
1.91684312687e-08
1.89030719843e-08
1.86868990074e-08
1.85233018951e-08
1.84128097946e-08
1.83341292045e-08
0.232918
0.232918
0.232918
0.232918
0.232918
0.232918
0.232918
0.232918
0.232918
0.232918
0.232918
0.232918
0.232918
0.232918
0.232918
0.232918
0.232918
0.232918
0.232918
0.232918
0.232918
0.232918
0.232918
0.232918
0.232918
0.232918
0.232918
0.232918
0.232918
0.232918
0.232918
0.232918
0.232918
0.232917757793
0.120638433961
7.33862507017e-06
1.36644332869e-07
6.20388808441e-08
4.00981761616e-08
3.29364961396e-08
3.07699356931e-08
2.98626642675e-08
2.93998909339e-08
2.89547588008e-08
2.85237934113e-08
2.80759339496e-08
2.76281799943e-08
2.71398810154e-08
2.66342014948e-08
2.61129916162e-08
2.55808435773e-08
2.50378663298e-08
2.44898285962e-08
2.39399409373e-08
2.33890452369e-08
2.28654065498e-08
2.23330729203e-08
2.18154736988e-08
2.13197206124e-08
2.08473316327e-08
2.04025031992e-08
1.99915835597e-08
1.9617171249e-08
1.9301926127e-08
1.90120865563e-08
1.87673249519e-08
1.85695374762e-08
1.84192617703e-08
1.83179522687e-08
1.82498154166e-08
0.232918
0.232918
0.232918
0.232918
0.232918
0.232918
0.232918
0.232918
0.232918
0.232918
0.232918
0.232918
0.232918
0.232918
0.232918
0.232918
0.232918
0.232918
0.232918
0.232918
0.232918
0.232918
0.232918
0.232918
0.232918
0.232918
0.232918
0.232918
0.232918
0.232918
0.232918
0.232918
0.232918
0.232916978527
0.000452118202293
8.90862078902e-07
1.04497934357e-07
5.34619501262e-08
3.7403247691e-08
3.23739947917e-08
3.06758262966e-08
2.99680902096e-08
2.94865614883e-08
2.90121998676e-08
2.85760981009e-08
2.81054711252e-08
2.76175941272e-08
2.71145522738e-08
2.65964972344e-08
2.60656461341e-08
2.5525905569e-08
2.49778115737e-08
2.44266357415e-08
2.38757383029e-08
2.33482675929e-08
2.28073191093e-08
2.22818033356e-08
2.17729660047e-08
2.12873043301e-08
2.08267921151e-08
2.0394159226e-08
2.00150344137e-08
1.96526042764e-08
1.93313674755e-08
1.90524461082e-08
1.88183612522e-08
1.86288245927e-08
1.84859841928e-08
1.83900062368e-08
1.83251837495e-08
0.232918
0.232918
0.232918
0.232918
0.232918
0.232918
0.232918
0.232918
0.232918
0.232918
0.232918
0.232918
0.232918
0.232918
0.232918
0.232918
0.232918
0.232918
0.232918
0.232918
0.232918
0.232918
0.232918
0.232918
0.232918
0.232918
0.232918
0.232918
0.232918
0.232918
0.232918
0.232918
0.232918
0.232842140477
5.58037747536e-05
3.31425120106e-07
8.92353503541e-08
4.91685326972e-08
3.65127020605e-08
3.25970513427e-08
3.11457771428e-08
3.05180683822e-08
3.00223089621e-08
2.95327619578e-08
2.9034714242e-08
2.85279350188e-08
2.80087808179e-08
2.74753507267e-08
2.69312892694e-08
2.63762441774e-08
2.58147108585e-08
2.52488405395e-08
2.46802228095e-08
2.41359287323e-08
2.35776176091e-08
2.3029501103e-08
2.24964337086e-08
2.1983449907e-08
2.14939936519e-08
2.10520224734e-08
2.06200763805e-08
2.02234679719e-08
1.98637246667e-08
1.95436796096e-08
1.92669784603e-08
1.90338649201e-08
1.8847237183e-08
1.87060728385e-08
1.861118958e-08
1.85484854364e-08
0.232918
0.232918
0.232918
0.232918
0.232918
0.232918
0.232918
0.232918
0.232918
0.232918
0.232918
0.232918
0.232918
0.232918
0.232918
0.232918
0.232918
0.232918
0.232918
0.232918
0.232918
0.232918
0.232918
0.232918
0.232918
0.232918
0.232918
0.232918
0.232918
0.232918
0.232918
0.232918
0.232918
0.231614805661
2.94265717139e-05
2.43665345048e-07
8.1738390047e-08
4.76382559954e-08
3.65853075782e-08
3.3294721239e-08
3.20445235503e-08
3.13981178674e-08
3.08706084879e-08
3.03461049428e-08
2.98108193771e-08
2.92644634259e-08
2.87063091287e-08
2.81385197349e-08
2.75600846484e-08
2.69734178419e-08
2.63813395409e-08
2.57874494389e-08
2.52163300075e-08
2.46288874906e-08
2.40494518939e-08
2.34849323625e-08
2.29371154829e-08
2.24103736094e-08
2.19301052919e-08
2.14581463437e-08
2.1019091886e-08
2.06143722767e-08
2.02484001635e-08
1.99251399462e-08
1.96446369636e-08
1.94084835987e-08
1.92191153103e-08
1.9095318354e-08
1.89983723499e-08
1.89156684498e-08
0.232918
0.232918
0.232918
0.232918
0.232918
0.232918
0.232918
0.232918
0.232918
0.232918
0.232918
0.232918
0.232918
0.232918
0.232918
0.232918
0.232918
0.232918
0.232918
0.232918
0.232918
0.232918
0.232918
0.232918
0.232918
0.232918
0.232918
0.232918
0.232918
0.232918
0.232918
0.232918
0.232918
0.225142302067
2.0361485366e-05
2.04995672902e-07
7.75037054862e-08
4.69784034998e-08
3.75706131507e-08
3.43821737754e-08
3.32620667468e-08
3.25957394062e-08
3.20267053691e-08
3.14542195549e-08
3.087182718e-08
3.02780137032e-08
2.96741648969e-08
2.90614907771e-08
2.844168031e-08
2.78169605268e-08
2.72096346367e-08
2.65813851003e-08
2.59578721321e-08
2.5340511007e-08
2.47360205987e-08
2.4145777427e-08
2.35756815119e-08
2.30491697281e-08
2.25304151898e-08
2.20431701716e-08
2.1588714995e-08
2.11731874255e-08
2.07971507196e-08
2.04634003378e-08
2.01944716337e-08
1.99523323311e-08
1.97571919818e-08
1.96099946738e-08
1.9511417091e-08
1.9446573408e-08
0.232918
0.232918
0.232918
0.232918
0.232918
0.232918
0.232918
0.232918
0.232918
0.232918
0.232918
0.232918
0.232918
0.232918
0.232918
0.232918
0.232918
0.232918
0.232918
0.232918
0.232918
0.232918
0.232918
0.232918
0.232918
0.232918
0.232918
0.232918
0.232918
0.232918
0.232918
0.232918
0.232918
0.208433651215
1.57671925566e-05
1.84510269377e-07
7.54552888191e-08
4.76990173896e-08
3.8548283331e-08
3.58863497125e-08
3.48038878655e-08
3.40994128359e-08
3.34721343896e-08
3.28364174556e-08
3.21956581641e-08
3.15444814159e-08
3.08895521574e-08
3.02273898657e-08
2.95585665287e-08
2.8910650359e-08
2.82381240471e-08
2.7569144269e-08
2.69053466047e-08
2.62535123996e-08
2.56149132032e-08
2.50166288287e-08
2.44175240342e-08
2.38451125107e-08
2.33030998855e-08
2.27925018906e-08
2.23203676506e-08
2.18876879969e-08
2.15167220396e-08
2.11704557808e-08
2.08710080003e-08
2.0620610605e-08
2.04176456644e-08
2.02647923103e-08
2.01615507523e-08
2.009411965e-08
0.232918
0.232918
0.232918
0.232918
0.232918
0.232918
0.232918
0.232918
0.232918
0.232918
0.232918
0.232918
0.232918
0.232918
0.232918
0.232918
0.232918
0.232918
0.232918
0.232918
0.232918
0.232918
0.232918
0.232918
0.232918
0.232918
0.232918
0.232918
0.232918
0.232918
0.232918
0.232918
0.232917956873
0.189753565052
1.27612968098e-05
1.73029609766e-07
7.43676096505e-08
4.85934119011e-08
4.03871312406e-08
3.77186122451e-08
3.65982372671e-08
3.58618147944e-08
3.51773719191e-08
3.44859211484e-08
3.3784677855e-08
3.30746035077e-08
3.23562044837e-08
3.16326954119e-08
3.09308624469e-08
3.02057692778e-08
2.94819489299e-08
2.87657654609e-08
2.80565039758e-08
2.73605970165e-08
2.67041250447e-08
2.60469034691e-08
2.54140024646e-08
2.48112680161e-08
2.42390227473e-08
2.37034917901e-08
2.32284965696e-08
2.27732862291e-08
2.2363670656e-08
2.20017746137e-08
2.1688751824e-08
2.14257550065e-08
2.12132074434e-08
2.10534489191e-08
2.09460422204e-08
2.08770397055e-08
0.232918
0.232918
0.232918
0.232918
0.232918
0.232918
0.232918
0.232918
0.232918
0.232918
0.232918
0.232918
0.232918
0.232918
0.232918
0.232918
0.232918
0.232918
0.232918
0.232918
0.232918
0.232918
0.232918
0.232918
0.232918
0.232918
0.232918
0.232918
0.232918
0.232918
0.232918
0.232918
0.232917903094
0.169852644383
1.08792698614e-05
1.63805758838e-07
7.41290586465e-08
4.97338340585e-08
4.26071232959e-08
3.99621761158e-08
3.87994967e-08
3.79884821411e-08
3.72133058588e-08
3.64368754548e-08
3.5654031082e-08
3.48662610659e-08
3.40744718585e-08
3.33063823757e-08
3.25140902127e-08
3.17261314519e-08
3.0943005193e-08
3.01695064913e-08
2.9405811671e-08
2.86826985377e-08
2.79581093205e-08
2.72572135115e-08
2.6583349919e-08
2.59434546069e-08
2.53587986686e-08
2.47916766816e-08
2.42662313918e-08
2.37873886475e-08
2.3356179653e-08
2.29751702079e-08
2.26448880619e-08
2.23888996703e-08
2.21660322587e-08
2.19971942828e-08
2.18828837278e-08
2.18117376526e-08
0.232918
0.232918
0.232918
0.232918
0.232918
0.232918
0.232918
0.232918
0.232918
0.232918
0.232918
0.232918
0.232918
0.232918
0.232918
0.232918
0.232918
0.232918
0.232918
0.232918
0.232918
0.232918
0.232918
0.232918
0.232918
0.232918
0.232918
0.232918
0.232918
0.232918
0.232918
0.232918
0.232917840133
0.148814762131
9.43598920432e-06
1.58936490399e-07
7.47904376197e-08
5.15212337958e-08
4.49783759034e-08
4.26638806529e-08
4.13662119933e-08
4.04184243926e-08
3.95405055017e-08
3.86696642741e-08
3.77984506705e-08
3.69240639531e-08
3.60758446754e-08
3.52027923118e-08
3.43364171073e-08
3.34744095077e-08
3.26215143721e-08
3.18070883851e-08
3.09833144123e-08
3.01772958724e-08
2.93994341688e-08
2.86476402441e-08
2.7952428978e-08
2.72659130784e-08
2.66209673138e-08
2.60174528865e-08
2.54602953658e-08
2.49528714168e-08
2.45175945192e-08
2.41138216332e-08
2.37639609503e-08
2.34700212007e-08
2.32342219046e-08
2.30557391237e-08
2.29359766849e-08
2.28615059639e-08
0.232918
0.232918
0.232918
0.232918
0.232918
0.232918
0.232918
0.232918
0.232918
0.232918
0.232918
0.232918
0.232918
0.232918
0.232918
0.232918
0.232918
0.232918
0.232918
0.232918
0.232918
0.232918
0.232918
0.232918
0.232918
0.232918
0.232918
0.232918
0.232918
0.232918
0.232918
0.232918
0.232917776498
0.127081926158
8.22845883784e-06
1.5405811555e-07
7.5591070115e-08
5.40333675905e-08
4.79293836657e-08
4.54982435931e-08
4.42578701174e-08
4.3211018913e-08
4.22105639635e-08
4.12292934926e-08
4.02493947343e-08
3.92741639943e-08
3.83286768294e-08
3.73611283617e-08
3.64052069912e-08
3.54585428684e-08
3.45534165429e-08
3.36371513028e-08
3.2742929609e-08
3.18720204195e-08
3.10306306562e-08
3.0246818994e-08
2.94746928245e-08
2.87400145163e-08
2.80494888694e-08
2.74296803737e-08
2.68356537299e-08
2.62933114482e-08
2.5807350735e-08
2.53786683504e-08
2.50071091095e-08
2.4694850239e-08
2.44436394895e-08
2.42766218601e-08
2.41481593769e-08
2.40694717494e-08
0.232918
0.232918
0.232918
0.232918
0.232918
0.232918
0.232918
0.232918
0.232918
0.232918
0.232918
0.232918
0.232918
0.232918
0.232918
0.232918
0.232918
0.232918
0.232918
0.232918
0.232918
0.232918
0.232918
0.232918
0.232918
0.232918
0.232918
0.232918
0.232918
0.232918
0.232918
0.232918
0.232917704333
0.102922509554
7.11891155226e-06
1.50564076942e-07
7.73096746137e-08
5.6639648011e-08
5.106049484e-08
4.89238071868e-08
4.75463527207e-08
4.63609434086e-08
4.52292305899e-08
4.41160064679e-08
4.30151857047e-08
4.19484403469e-08
4.08613451394e-08
3.97894058788e-08
3.87301527291e-08
3.77150892185e-08
3.66926413918e-08
3.5692149481e-08
3.47163933537e-08
3.37962740085e-08
3.28862527221e-08
3.20115344156e-08
3.1179822281e-08
3.0416533968e-08
2.96751603248e-08
2.89850860413e-08
2.83480574982e-08
2.77700743321e-08
2.72516983609e-08
2.68173256415e-08
2.64213485414e-08
2.60890038551e-08
2.5821440179e-08
2.56177807598e-08
2.54793767741e-08
2.53958919673e-08
0.232918
0.232918
0.232918
0.232918
0.232918
0.232918
0.232918
0.232918
0.232918
0.232918
0.232918
0.232918
0.232918
0.232918
0.232918
0.232918
0.232918
0.232918
0.232918
0.232918
0.232918
0.232918
0.232918
0.232918
0.232918
0.232918
0.232918
0.232918
0.232918
0.232918
0.232918
0.232918
0.232917616532
0.0759203349926
5.91112960484e-06
1.47910021301e-07
7.90413101435e-08
5.99512843189e-08
5.47104651613e-08
5.26751610009e-08
5.12085667292e-08
4.98934092477e-08
4.86081029761e-08
4.73446963999e-08
4.61264997783e-08
4.48985269316e-08
4.36850633726e-08
4.24910716818e-08
4.13488531837e-08
4.01965171954e-08
3.9074298248e-08
3.79766879097e-08
3.69398945152e-08
3.59109398631e-08
3.49210174915e-08
3.39748518835e-08
3.31008737896e-08
3.2251629176e-08
3.14520008775e-08
3.07128448951e-08
3.00565842063e-08
2.9436700935e-08
2.8880125638e-08
2.83894298113e-08
2.79667349756e-08
2.76117744918e-08
2.73242013807e-08
2.71328587281e-08
2.69843910368e-08
2.68944376826e-08
0.232918
0.232918
0.232918
0.232918
0.232918
0.232918
0.232918
0.232918
0.232918
0.232918
0.232918
0.232918
0.232918
0.232918
0.232918
0.232918
0.232918
0.232918
0.232918
0.232918
0.232918
0.232918
0.232918
0.232918
0.232918
0.232918
0.232918
0.232918
0.232918
0.232918
0.232918
0.232918
0.232917500745
0.0452125980538
4.81698755217e-06
1.45466697854e-07
8.11459718455e-08
6.35876375953e-08
5.88852587561e-08
5.68984741409e-08
5.53259719766e-08
5.3832948435e-08
5.23665482603e-08
5.09630791893e-08
4.95556948431e-08
4.81734446249e-08
4.68185884277e-08
4.55183928732e-08
4.4215397382e-08
4.29458136153e-08
4.17350280735e-08
4.05333200205e-08
3.93692550392e-08
3.82465068814e-08
3.7197049308e-08
3.6170284622e-08
3.51944108917e-08
3.42760647729e-08
3.34440526782e-08
3.26453005197e-08
3.19142212943e-08
3.12476207767e-08
3.06786417553e-08
3.01517873338e-08
2.96961219123e-08
2.93162168806e-08
2.90094253434e-08
2.87769108645e-08
2.86171686669e-08
2.85213045234e-08
0.232918
0.232918
0.232918
0.232918
0.232918
0.232918
0.232918
0.232918
0.232918
0.232918
0.232918
0.232918
0.232918
0.232918
0.232918
0.232918
0.232918
0.232918
0.232918
0.232918
0.232918
0.232918
0.232918
0.232918
0.232918
0.232918
0.232918
0.232918
0.232918
0.232918
0.232918
0.232918
0.232917354998
0.0156529927584
3.65251468572e-06
1.43582995749e-07
8.40205830809e-08
6.77016649915e-08
6.34513759622e-08
6.15806320163e-08
5.98920272078e-08
5.8198914774e-08
5.65594255169e-08
5.4930938779e-08
5.33400071716e-08
5.17872109668e-08
5.03014829568e-08
4.88206571575e-08
4.7375132734e-08
4.60001318702e-08
4.46338357908e-08
4.33117632064e-08
4.20665421121e-08
4.08412032844e-08
3.96664727271e-08
3.85517743906e-08
3.75223479955e-08
3.65296992447e-08
3.56010532904e-08
3.47391578224e-08
3.39777058185e-08
3.32624652199e-08
3.26225102094e-08
3.20578060063e-08
3.15689653641e-08
3.11883708747e-08
3.08578536857e-08
3.06074719648e-08
3.04346382728e-08
3.03324605562e-08
0.232918
0.232918
0.232918
0.232918
0.232918
0.232918
0.232918
0.232918
0.232918
0.232918
0.232918
0.232918
0.232918
0.232918
0.232918
0.232918
0.232918
0.232918
0.232918
0.232918
0.232918
0.232918
0.232918
0.232918
0.232918
0.232918
0.232918
0.232918
0.232918
0.232918
0.232918
0.232918
0.232917140704
0.00151013499692
2.32479538537e-06
1.40875340459e-07
8.62973462591e-08
7.23555815684e-08
6.89917253248e-08
6.69616106083e-08
6.4988566959e-08
6.30292701414e-08
6.1150797363e-08
5.93025649331e-08
5.75064400999e-08
5.57905383882e-08
5.40897545052e-08
5.24367607786e-08
5.08663594565e-08
4.93105260345e-08
4.78050225135e-08
4.63813984496e-08
4.49850355026e-08
4.36450109498e-08
4.23977644262e-08
4.11819314896e-08
4.00363184087e-08
3.89875503839e-08
3.79848161914e-08
3.70575829206e-08
3.6206170062e-08
3.54662668492e-08
3.47757366713e-08
3.41671569601e-08
3.36433041107e-08
3.32039901875e-08
3.28491314778e-08
3.25786765166e-08
3.23925035038e-08
3.22817139989e-08
0.232918
0.232918
0.232918
0.232918
0.232918
0.232918
0.232918
0.232918
0.232918
0.232918
0.232918
0.232918
0.232918
0.232918
0.232918
0.232918
0.232918
0.232918
0.232918
0.232918
0.232918
0.232918
0.232918
0.232918
0.232918
0.232918
0.232918
0.232918
0.232918
0.232918
0.232918
0.232918
0.232915528923
0.000293233271708
1.2759022814e-06
1.3943190488e-07
8.99011851913e-08
7.74241119781e-08
7.49374086948e-08
7.27549949423e-08
7.05189702514e-08
6.83277497301e-08
6.61678122324e-08
6.40809501853e-08
6.20896665442e-08
6.01289775339e-08
5.82612183523e-08
5.64178827713e-08
5.46361382613e-08
5.29484375096e-08
5.12863894658e-08
4.96904152519e-08
4.81918960639e-08
4.67273511743e-08
4.53329316666e-08
4.40448697095e-08
4.27976208465e-08
4.16316929867e-08
4.05458271199e-08
3.95758631545e-08
3.86555379401e-08
3.7826938755e-08
3.70846263445e-08
3.64625366017e-08
3.58976395429e-08
3.54242349385e-08
3.50424244661e-08
3.47502043054e-08
3.45478462752e-08
3.44285500854e-08
0.232918
0.232918
0.232918
0.232918
0.232918
0.232918
0.232918
0.232918
0.232918
0.232918
0.232918
0.232918
0.232918
0.232918
0.232918
0.232918
0.232918
0.232918
0.232918
0.232918
0.232918
0.232918
0.232918
0.232918
0.232918
0.232918
0.232918
0.232918
0.232918
0.232918
0.232918
0.232918
0.232911510206
0.000114523686139
7.56441263622e-07
1.38288523926e-07
9.4027438346e-08
8.32117565079e-08
8.10954325783e-08
7.91046642327e-08
7.66336709903e-08
7.41101314092e-08
7.16544726057e-08
6.93277285937e-08
6.70475502458e-08
6.48805598329e-08
6.27552520921e-08
6.07061340073e-08
5.87612307634e-08
5.68575203118e-08
5.50619888846e-08
5.33072995975e-08
5.16297111265e-08
5.00633182796e-08
4.85419007514e-08
4.71058039444e-08
4.57894139739e-08
4.45234415088e-08
4.33500952608e-08
4.22683232148e-08
4.13116552205e-08
4.04159430977e-08
3.96178906111e-08
3.89147215566e-08
3.83403248681e-08
3.78294076315e-08
3.74178764043e-08
3.71015889585e-08
3.68818098364e-08
3.67511133508e-08
0.232918
0.232918
0.232918
0.232918
0.232918
0.232918
0.232918
0.232918
0.232918
0.232918
0.232918
0.232918
0.232918
0.232918
0.232918
0.232918
0.232918
0.232918
0.232918
0.232918
0.232918
0.232918
0.232918
0.232918
0.232918
0.232918
0.232918
0.232918
0.232918
0.232918
0.232918
0.232918
0.232840812165
6.4361946985e-05
5.22369937294e-07
1.37642322456e-07
9.84702788111e-08
8.98575400407e-08
8.81217775315e-08
8.60287406906e-08
8.32517983098e-08
8.03931626071e-08
7.76562227025e-08
7.49880974503e-08
7.24589517787e-08
6.99918686616e-08
6.76164337842e-08
6.53721783798e-08
6.31794709197e-08
6.11142112894e-08
5.90961685008e-08
5.72067071565e-08
5.53708347036e-08
5.3621561569e-08
5.20046985415e-08
5.04416707541e-08
4.89755455937e-08
4.76416878122e-08
4.63744923725e-08
4.52045591805e-08
4.41387841296e-08
4.32101631515e-08
4.23494197995e-08
4.15924896581e-08
4.09406043631e-08
4.04267736204e-08
3.99819294765e-08
3.96396895838e-08
3.93993396237e-08
3.92566250655e-08
0.232918
0.232918
0.232918
0.232918
0.232918
0.232918
0.232918
0.232918
0.232918
0.232918
0.232918
0.232918
0.232918
0.232918
0.232918
0.232918
0.232918
0.232918
0.232918
0.232918
0.232918
0.232918
0.232918
0.232918
0.232918
0.232918
0.232918
0.232918
0.232918
0.232918
0.232918
0.232918
0.232290449604
4.07189145867e-05
4.07470336479e-07
1.37639450173e-07
1.03113023687e-07
9.72850744983e-08
9.61487394469e-08
9.36134823252e-08
9.04421076561e-08
8.71960370584e-08
8.40964970389e-08
8.10924141121e-08
7.82481527867e-08
7.54911107455e-08
7.28822025244e-08
7.03557878952e-08
6.7967332808e-08
6.56448860335e-08
6.34686075997e-08
6.13583411993e-08
5.93861390094e-08
5.74787425515e-08
5.56799900611e-08
5.40203389592e-08
5.24328107137e-08
5.09529709016e-08
4.96200123396e-08
4.83577936953e-08
4.72092471557e-08
4.62086927453e-08
4.52831960714e-08
4.44690966773e-08
4.37675364776e-08
4.31776705819e-08
4.27325348258e-08
4.23617598757e-08
4.21005940003e-08
4.19442841805e-08
0.232918
0.232918
0.232918
0.232918
0.232918
0.232918
0.232918
0.232918
0.232918
0.232918
0.232918
0.232918
0.232918
0.232918
0.232918
0.232918
0.232918
0.232918
0.232918
0.232918
0.232918
0.232918
0.232918
0.232918
0.232918
0.232918
0.232918
0.232918
0.232918
0.232918
0.232918
0.232918
0.228025938614
2.78201790522e-05
3.40382213097e-07
1.3895124454e-07
1.09542857568e-07
1.05785818399e-07
1.04670900504e-07
1.0182267714e-07
9.8181691242e-08
9.4539256759e-08
9.10010052765e-08
8.76684490454e-08
8.44508356564e-08
8.14183657912e-08
7.85241867842e-08
7.57186044841e-08
7.30853493591e-08
7.05308870022e-08
6.8100568709e-08
6.58279134084e-08
6.36376729783e-08
6.1604072599e-08
5.96444726027e-08
5.78468804851e-08
5.61283624724e-08
5.45313034764e-08
5.30929249619e-08
5.17321560453e-08
5.04961182785e-08
4.93814391694e-08
4.84224424082e-08
4.75482380222e-08
4.67945989665e-08
4.61599275331e-08
4.56429291575e-08
4.52800249395e-08
4.49942978787e-08
4.48217577083e-08
0.232918
0.232918
0.232918
0.232918
0.232918
0.232918
0.232918
0.232918
0.232918
0.232918
0.232918
0.232918
0.232918
0.232918
0.232918
0.232918
0.232918
0.232918
0.232918
0.232918
0.232918
0.232918
0.232918
0.232918
0.232918
0.232918
0.232918
0.232918
0.232918
0.232918
0.232918
0.23291799719
0.208571725695
1.93268244355e-05
2.94146219231e-07
1.40049041763e-07
1.17310168447e-07
1.14855727787e-07
1.14190280876e-07
1.10677309428e-07
1.06494382918e-07
1.02348976778e-07
9.84289738808e-08
9.46623951847e-08
9.11206288926e-08
8.77522781422e-08
8.44982538695e-08
8.14402162495e-08
7.84916302214e-08
7.57331378252e-08
7.30695569733e-08
7.05903583348e-08
6.82001241856e-08
6.59903253478e-08
6.38707992855e-08
6.18822426586e-08
6.00664446834e-08
5.83426857289e-08
5.67482606479e-08
5.5328711371e-08
5.39962465726e-08
5.2799395109e-08
5.17721583766e-08
5.08336778517e-08
5.00232277307e-08
4.93400847779e-08
4.87833708179e-08
4.838839682e-08
4.80779667084e-08
4.78867957259e-08
0.232918
0.232918
0.232918
0.232918
0.232918
0.232918
0.232918
0.232918
0.232918
0.232918
0.232918
0.232918
0.232918
0.232918
0.232918
0.232918
0.232918
0.232918
0.232918
0.232918
0.232918
0.232918
0.232918
0.232918
0.232918
0.232918
0.232918
0.232918
0.232918
0.232918
0.232918
0.232917862619
0.166642297398
1.3774426319e-05
2.60319853766e-07
1.43944426544e-07
1.25480881997e-07
1.24972549956e-07
1.24217441565e-07
1.20191793139e-07
1.15403712332e-07
1.10772078718e-07
1.06327141265e-07
1.02161008734e-07
9.82163743147e-08
9.44275519146e-08
9.08803045111e-08
8.74693393059e-08
8.42766518347e-08
8.12501965639e-08
7.83440188806e-08
7.56390343037e-08
7.30456607164e-08
7.05983581981e-08
6.83456263215e-08
6.61999461024e-08
6.42409551331e-08
6.23855695336e-08
6.06704352579e-08
5.91454751127e-08
5.77196050791e-08
5.64327005749e-08
5.53292149987e-08
5.43208425581e-08
5.34504954594e-08
5.27163805657e-08
5.21153821503e-08
5.16887445996e-08
5.13494230551e-08
5.11359758803e-08
0.232918
0.232918
0.232918
0.232918
0.232918
0.232918
0.232918
0.232918
0.232918
0.232918
0.232918
0.232918
0.232918
0.232918
0.232918
0.232918
0.232918
0.232918
0.232918
0.232918
0.232918
0.232918
0.232918
0.232918
0.232918
0.232918
0.232918
0.232918
0.232918
0.232918
0.232918
0.2329176472
0.100507479079
9.52162207572e-06
2.37865443133e-07
1.48623148568e-07
1.35262076907e-07
1.36715449106e-07
1.34979655262e-07
1.3024241136e-07
1.24842642421e-07
1.1964919542e-07
1.14736524924e-07
1.10102445261e-07
1.05675485696e-07
1.01540576036e-07
9.7627453846e-08
9.38783418553e-08
9.03822853708e-08
8.70253125726e-08
8.39098799733e-08
8.09211029889e-08
7.81510449729e-08
7.55053727613e-08
7.30738552877e-08
7.0759276708e-08
6.86510283229e-08
6.66541613334e-08
6.48157715268e-08
6.31794697215e-08
6.16489098744e-08
6.02742937604e-08
5.9091442398e-08
5.8012057115e-08
5.70792303906e-08
5.62907371595e-08
5.56883730212e-08
5.51818373932e-08
5.48087603658e-08
5.45694436969e-08
0.232918
0.232918
0.232918
0.232918
0.232918
0.232918
0.232918
0.232918
0.232918
0.232918
0.232918
0.232918
0.232918
0.232918
0.232918
0.232918
0.232918
0.232918
0.232918
0.232918
0.232918
0.232918
0.232918
0.232918
0.232918
0.232918
0.232918
0.232918
0.232918
0.232918
0.232918
0.232917295355
0.0187031016053
6.09874740076e-06
2.2269472912e-07
1.55689702719e-07
1.46490951826e-07
1.48996128103e-07
1.46646502089e-07
1.40970995317e-07
1.34906460928e-07
1.29095673767e-07
1.23626937616e-07
1.18434507651e-07
1.13592443626e-07
1.09033928106e-07
1.04683365253e-07
1.00625002252e-07
9.68015713819e-08
9.31453307768e-08
8.97501962572e-08
8.65103992775e-08
8.35142058622e-08
8.06604814799e-08
7.80418704702e-08
7.55528084062e-08
7.32897424473e-08
7.11524992239e-08
6.9230428932e-08
6.74298877229e-08
6.57912683642e-08
6.43672903406e-08
6.30544662816e-08
6.19021660315e-08
6.09053429497e-08
6.0106122792e-08
5.94090864666e-08
5.88578989499e-08
5.845138023e-08
5.81878522881e-08
0.232918
0.232918
0.232918
0.232918
0.232918
0.232918
0.232918
0.232918
0.232918
0.232918
0.232918
0.232918
0.232918
0.232918
0.232918
0.232918
0.232918
0.232918
0.232918
0.232918
0.232918
0.232918
0.232918
0.232918
0.232918
0.232918
0.232918
0.232918
0.232918
0.232918
0.232918
0.232913585463
0.000233888199396
2.95535105667e-06
2.13294711169e-07
1.63210962545e-07
1.60447161325e-07
1.62652410662e-07
1.59009390828e-07
1.5232319163e-07
1.45488340938e-07
1.39028573769e-07
1.32908143715e-07
1.27229331256e-07
1.21885719199e-07
1.16882118357e-07
1.12113041323e-07
1.07681980578e-07
1.03521849497e-07
9.95478147955e-08
9.58661894973e-08
9.23607691182e-08
8.91340075738e-08
8.60620751529e-08
8.32421625743e-08
8.0571818e-08
7.81495040466e-08
7.58586164252e-08
7.38078364889e-08
7.18846255698e-08
7.01381971846e-08
6.86174369347e-08
6.72175215092e-08
6.59839330472e-08
6.49669927169e-08
6.40615476683e-08
6.3313742436e-08
6.27205430631e-08
6.22781784541e-08
6.19796291476e-08
0.232918
0.232918
0.232918
0.232918
0.232918
0.232918
0.232918
0.232918
0.232918
0.232918
0.232918
0.232918
0.232918
0.232918
0.232918
0.232918
0.232918
0.232918
0.232918
0.232918
0.232918
0.232918
0.232918
0.232918
0.232918
0.232918
0.232918
0.232918
0.232918
0.232918
0.232918
0.232731697255
5.98715303838e-05
8.82753718056e-07
2.0850505801e-07
1.74331710582e-07
1.74848334331e-07
1.76969626978e-07
1.72085224235e-07
1.64266392061e-07
1.56577109516e-07
1.49383451401e-07
1.42679397648e-07
1.36416451584e-07
1.30564166952e-07
1.25060385874e-07
1.1985413708e-07
1.15025379817e-07
1.10499820795e-07
1.06204536374e-07
1.0222992473e-07
9.85079994875e-08
9.49760734843e-08
9.1732595143e-08
8.86608090344e-08
8.58617333321e-08
8.3214625038e-08
8.07773796702e-08
7.85860462407e-08
7.65392740081e-08
7.4739056174e-08
7.30635391746e-08
7.15727150884e-08
7.0316263156e-08
6.91738451507e-08
6.82047250015e-08
6.73981236899e-08
6.67564529837e-08
6.63208793152e-08
6.5985173305e-08
0.232918
0.232918
0.232918
0.232918
0.232918
0.232918
0.232918
0.232918
0.232918
0.232918
0.232918
0.232918
0.232918
0.232918
0.232918
0.232918
0.232918
0.232918
0.232918
0.232918
0.232918
0.232918
0.232918
0.232918
0.232918
0.232918
0.232918
0.232918
0.232918
0.232918
0.232918
0.223247783631
2.76552549806e-05
4.96577151398e-07
2.09036848239e-07
1.86245082583e-07
1.920465591e-07
1.92566449153e-07
1.85569636491e-07
1.76703430841e-07
1.68185558054e-07
1.60246689055e-07
1.52834235719e-07
1.45959352605e-07
1.39545913006e-07
1.33540806335e-07
1.27876334786e-07
1.22646186856e-07
1.17741543314e-07
1.13103151701e-07
1.08822602763e-07
1.04826662585e-07
1.01039182335e-07
9.75667046322e-08
9.42851773012e-08
9.12967119507e-08
8.84763825236e-08
8.59408318816e-08
8.35573620851e-08
8.14392120546e-08
7.94640335041e-08
7.76918274764e-08
7.61655170316e-08
7.47635751284e-08
7.35477048204e-08
7.25070901842e-08
7.17029813892e-08
7.10041699546e-08
7.04707231195e-08
7.0090612296e-08
0.232918
0.232918
0.232918
0.232918
0.232918
0.232918
0.232918
0.232918
0.232918
0.232918
0.232918
0.232918
0.232918
0.232918
0.232918
0.232918
0.232918
0.232918
0.232918
0.232918
0.232918
0.232918
0.232918
0.232918
0.232918
0.232918
0.232918
0.232918
0.232918
0.232918
0.232917825958
0.160363852949
1.55666504268e-05
3.70724213839e-07
2.13234527227e-07
2.0263657827e-07
2.10327165911e-07
2.08567132408e-07
1.99629650393e-07
1.89607786834e-07
1.80184364864e-07
1.71458809764e-07
1.63364118696e-07
1.5583105207e-07
1.48817473844e-07
1.42298350682e-07
1.36157996251e-07
1.30488587834e-07
1.25208352839e-07
1.20275036283e-07
1.15615575204e-07
1.11337128019e-07
1.07291358388e-07
1.03589133655e-07
1.00156076442e-07
9.69163328495e-08
9.3985108829e-08
9.12265676099e-08
8.87034446574e-08
8.64556769252e-08
8.43652528131e-08
8.25442656899e-08
8.08615700415e-08
7.9376742395e-08
7.80847367807e-08
7.70425871652e-08
7.61158329023e-08
7.53588420503e-08
7.47735443785e-08
7.43441301866e-08
0.232918
0.232918
0.232918
0.232918
0.232918
0.232918
0.232918
0.232918
0.232918
0.232918
0.232918
0.232918
0.232918
0.232918
0.232918
0.232918
0.232918
0.232918
0.232918
0.232918
0.232918
0.232918
0.232918
0.232918
0.232918
0.232918
0.232918
0.232918