/*--------------------------------*- C++ -*----------------------------------*\
| =========                 |                                                 |
| \\      /  F ield         | foam-extend: Open Source CFD                    |
|  \\    /   O peration     | Version:     4.1                                |
|   \\  /    A nd           | Web:         http://www.foam-extend.org         |
|    \\/     M anipulation  |                                                 |
\*---------------------------------------------------------------------------*/
FoamFile
{
    version     2.0;
    format      ascii;
    class       volScalarField;
    location    "0.0002";
    object      O2Plus;
}
// * * * * * * * * * * * * * * * * * * * * * * * * * * * * * * * * * * * * * //

dimensions      [0 0 0 0 0 0 0];

internalField   nonuniform List<scalar> 
8400
(
2.9324797476e-108
2.93247974762e-108
2.93247974764e-108
2.93247974765e-108
2.93247974767e-108
2.93247974769e-108
2.93247974771e-108
2.93247974772e-108
2.93247974774e-108
2.93247974776e-108
2.93247974777e-108
2.93247974779e-108
2.9324797478e-108
2.93247974782e-108
2.93247974783e-108
2.93247974785e-108
2.93247974786e-108
2.93247974787e-108
2.93247974789e-108
2.9324797479e-108
2.93247974791e-108
2.93247974793e-108
2.93247974794e-108
2.93247974795e-108
2.93247974796e-108
2.93247974798e-108
2.93247974799e-108
2.932479748e-108
2.93247974806e-108
2.93247975173e-108
2.93248000918e-108
2.93249717977e-108
2.93364258273e-108
2.96715803659e-108
1.93341623137e-42
9.546552371e-11
1.24233217399e-07
2.06207742742e-07
2.17134858383e-07
2.1639302349e-07
2.18526141182e-07
2.1921057055e-07
2.18118275106e-07
2.1609163992e-07
2.14003715252e-07
2.11905834918e-07
2.0988201425e-07
2.07756478615e-07
2.05592424832e-07
2.03383139787e-07
2.01207994796e-07
1.98905246935e-07
1.96552676559e-07
1.94159075207e-07
1.91740753824e-07
1.89384003933e-07
1.86946849472e-07
1.84526242652e-07
1.82138399416e-07
1.79819006521e-07
1.77675956535e-07
1.75564329644e-07
1.73591317615e-07
1.71800604075e-07
1.7021061181e-07
1.68845181847e-07
1.67723984187e-07
1.66872705575e-07
1.66299743825e-07
1.65999571349e-07
2.93247974479e-108
2.93247974479e-108
2.9324797448e-108
2.93247974481e-108
2.93247974481e-108
2.93247974482e-108
2.93247974483e-108
2.93247974483e-108
2.93247974484e-108
2.93247974485e-108
2.93247974485e-108
2.93247974486e-108
2.93247974486e-108
2.93247974487e-108
2.93247974488e-108
2.93247974488e-108
2.93247974489e-108
2.93247974489e-108
2.9324797449e-108
2.9324797449e-108
2.93247974491e-108
2.93247974492e-108
2.93247974492e-108
2.93247974493e-108
2.93247974493e-108
2.93247974494e-108
2.93247974494e-108
2.93247974495e-108
2.93247974538e-108
2.93247977471e-108
2.93248178484e-108
2.93260988469e-108
2.94105753006e-108
3.07326259955e-108
6.48376943925e-19
3.63203761456e-08
1.83418413113e-07
2.13338741172e-07
2.13121729924e-07
2.11574920702e-07
2.1370600317e-07
2.13987053291e-07
2.12897779219e-07
2.11374992251e-07
2.09779573435e-07
2.08067949181e-07
2.06343911439e-07
2.04447573262e-07
2.02467613803e-07
2.00407614649e-07
1.98272747833e-07
1.96071828838e-07
1.93804770926e-07
1.9149455182e-07
1.89151368863e-07
1.86873343762e-07
1.84511510055e-07
1.82177347967e-07
1.79890459767e-07
1.77680825217e-07
1.7556559673e-07
1.73575794541e-07
1.71738433827e-07
1.70152598735e-07
1.68683700325e-07
1.6743137241e-07
1.6640977612e-07
1.65631452816e-07
1.65108836099e-07
1.64828955517e-07
2.93247974389e-108
2.9324797439e-108
2.9324797439e-108
2.93247974391e-108
2.93247974391e-108
2.93247974391e-108
2.93247974392e-108
2.93247974392e-108
2.93247974393e-108
2.93247974393e-108
2.93247974393e-108
2.93247974394e-108
2.93247974394e-108
2.93247974394e-108
2.93247974395e-108
2.93247974395e-108
2.93247974395e-108
2.93247974396e-108
2.93247974396e-108
2.93247974396e-108
2.93247974397e-108
2.93247974397e-108
2.93247974397e-108
2.93247974398e-108
2.93247974398e-108
2.93247974398e-108
2.93247974399e-108
2.93247974402e-108
2.93247974587e-108
2.932479872e-108
2.93248855157e-108
2.93308373341e-108
2.95813281845e-108
9.41072120385e-43
8.86900353335e-12
1.01090147777e-07
2.01513274999e-07
2.14108834037e-07
2.11028721065e-07
2.1098975063e-07
2.12457890683e-07
2.11847752933e-07
2.10715221746e-07
2.09203115282e-07
2.07650574025e-07
2.06003353156e-07
2.04332308803e-07
2.02486443941e-07
2.00548502901e-07
1.985239843e-07
1.96427803591e-07
1.94257496101e-07
1.92034570928e-07
1.89772922841e-07
1.87479156698e-07
1.85267311939e-07
1.82986297522e-07
1.80735816618e-07
1.78549475204e-07
1.76441487223e-07
1.7443532005e-07
1.72562074917e-07
1.70837121285e-07
1.69362871382e-07
1.6799746484e-07
1.66837483234e-07
1.65892151691e-07
1.65175266629e-07
1.64694154592e-07
1.6443973447e-07
2.93247974349e-108
2.93247974349e-108
2.9324797435e-108
2.9324797435e-108
2.9324797435e-108
2.93247974351e-108
2.93247974351e-108
2.93247974351e-108
2.93247974351e-108
2.93247974352e-108
2.93247974352e-108
2.93247974352e-108
2.93247974352e-108
2.93247974353e-108
2.93247974353e-108
2.93247974353e-108
2.93247974353e-108
2.93247974354e-108
2.93247974354e-108
2.93247974354e-108
2.93247974354e-108
2.93247974354e-108
2.93247974355e-108
2.93247974355e-108
2.93247974355e-108
2.93247974355e-108
2.93247974356e-108
2.93247974365e-108
2.93247975018e-108
2.9324802051e-108
2.93250987926e-108
2.93448932223e-108
2.98214358044e-108
4.38339654806e-31
4.47147685755e-09
1.51976761655e-07
2.08819112959e-07
2.1368877463e-07
2.11124232029e-07
2.12545273038e-07
2.13256399133e-07
2.12437357221e-07
2.1102524777e-07
2.0936971732e-07
2.07787325549e-07
2.0605013586e-07
2.04222836449e-07
2.02312306399e-07
2.00318784095e-07
1.98248585129e-07
1.96114484401e-07
1.93916485507e-07
1.91675013345e-07
1.89405619506e-07
1.8720256107e-07
1.8491523057e-07
1.82657566051e-07
1.80440418198e-07
1.78294711619e-07
1.76236556395e-07
1.74284031008e-07
1.72553398958e-07
1.70881141219e-07
1.69382696441e-07
1.68071242328e-07
1.6695980156e-07
1.6605750516e-07
1.65372898104e-07
1.64913896541e-07
1.64669577029e-07
2.93247974327e-108
2.93247974327e-108
2.93247974327e-108
2.93247974328e-108
2.93247974328e-108
2.93247974328e-108
2.93247974328e-108
2.93247974328e-108
2.93247974329e-108
2.93247974329e-108
2.93247974329e-108
2.93247974329e-108
2.93247974329e-108
2.9324797433e-108
2.9324797433e-108
2.9324797433e-108
2.9324797433e-108
2.9324797433e-108
2.9324797433e-108
2.93247974331e-108
2.93247974331e-108
2.93247974331e-108
2.93247974331e-108
2.93247974331e-108
2.93247974331e-108
2.93247974332e-108
2.93247974332e-108
2.93247974353e-108
2.93247975822e-108
2.93248079438e-108
2.93254926268e-108
2.93721492954e-108
3.02563262743e-108
1.85887465737e-22
2.14405617952e-08
1.74026959316e-07
2.12060865745e-07
2.13680000683e-07
2.12849703126e-07
2.15116641567e-07
2.15400617205e-07
2.14433243168e-07
2.12890133215e-07
2.11173966214e-07
2.09374420487e-07
2.0751218158e-07
2.05578161683e-07
2.03564192317e-07
2.01481546921e-07
1.99328461429e-07
1.97119899263e-07
1.94864046988e-07
1.92564388736e-07
1.90331161992e-07
1.88012221093e-07
1.85703594882e-07
1.8342604642e-07
1.81202829881e-07
1.79053534503e-07
1.77086485689e-07
1.75145540866e-07
1.73344284708e-07
1.716949996e-07
1.702118648e-07
1.68917984351e-07
1.67823337809e-07
1.66937222906e-07
1.66266584165e-07
1.658162819e-07
1.6557748308e-07
2.93247974313e-108
2.93247974313e-108
2.93247974313e-108
2.93247974313e-108
2.93247974314e-108
2.93247974314e-108
2.93247974314e-108
2.93247974314e-108
2.93247974314e-108
2.93247974314e-108
2.93247974315e-108
2.93247974315e-108
2.93247974315e-108
2.93247974315e-108
2.93247974315e-108
2.93247974315e-108
2.93247974316e-108
2.93247974316e-108
2.93247974316e-108
2.93247974316e-108
2.93247974316e-108
2.93247974316e-108
2.93247974316e-108
2.93247974317e-108
2.93247974317e-108
2.93247974317e-108
2.93247974317e-108
2.93247974355e-108
2.9324797701e-108
2.93248162478e-108
2.93260207004e-108
2.94068213668e-108
3.07070798223e-108
4.65901746438e-19
3.62702346847e-08
1.83769068282e-07
2.14493508979e-07
2.15645125592e-07
2.15721916531e-07
2.18482626897e-07
2.18716857542e-07
2.17471420447e-07
2.15795590588e-07
2.13969033788e-07
2.12056531312e-07
2.10074180635e-07
2.08021847821e-07
2.05905979876e-07
2.03720878543e-07
2.01473309309e-07
1.99173315435e-07
1.96834477249e-07
1.94550258742e-07
1.92170268799e-07
1.89787386702e-07
1.87433362986e-07
1.85117487165e-07
1.82860152928e-07
1.8077060798e-07
1.78694064978e-07
1.76740208101e-07
1.74923407177e-07
1.73267063176e-07
1.7178516827e-07
1.70487578021e-07
1.69387482202e-07
1.68499745642e-07
1.67916468421e-07
1.67463112947e-07
1.67138942039e-07
2.93247974303e-108
2.93247974303e-108
2.93247974304e-108
2.93247974304e-108
2.93247974304e-108
2.93247974304e-108
2.93247974304e-108
2.93247974304e-108
2.93247974304e-108
2.93247974305e-108
2.93247974305e-108
2.93247974305e-108
2.93247974305e-108
2.93247974305e-108
2.93247974305e-108
2.93247974305e-108
2.93247974306e-108
2.93247974306e-108
2.93247974306e-108
2.93247974306e-108
2.93247974306e-108
2.93247974306e-108
2.93247974306e-108
2.93247974306e-108
2.93247974307e-108
2.93247974307e-108
2.93247974308e-108
2.93247974365e-108
2.93247978389e-108
2.93248256119e-108
2.9326602793e-108
2.9443157871e-108
3.11445896033e-108
3.49759488887e-16
4.94707303985e-08
1.89760177258e-07
2.16512174067e-07
2.17765427667e-07
2.20282784206e-07
2.22661444276e-07
2.22910328328e-07
2.21491366352e-07
2.1967812766e-07
2.17715313905e-07
2.15672159066e-07
2.13557099157e-07
2.11376618865e-07
2.09134628427e-07
2.0683531291e-07
2.04484940469e-07
2.02164943562e-07
1.99732561174e-07
1.97279993334e-07
1.94817523702e-07
1.92371382118e-07
1.8994904427e-07
1.87577189482e-07
1.85353380255e-07
1.83136736281e-07
1.81026589273e-07
1.79035608088e-07
1.77194537121e-07
1.75512555922e-07
1.74008239019e-07
1.72782957549e-07
1.71672951782e-07
1.70774357817e-07
1.70094235407e-07
1.6963644589e-07
1.69397217356e-07
2.93247974296e-108
2.93247974296e-108
2.93247974297e-108
2.93247974297e-108
2.93247974297e-108
2.93247974297e-108
2.93247974297e-108
2.93247974297e-108
2.93247974297e-108
2.93247974297e-108
2.93247974298e-108
2.93247974298e-108
2.93247974298e-108
2.93247974298e-108
2.93247974298e-108
2.93247974298e-108
2.93247974298e-108
2.93247974298e-108
2.93247974299e-108
2.93247974299e-108
2.93247974299e-108
2.93247974299e-108
2.93247974299e-108
2.93247974299e-108
2.93247974299e-108
2.93247974299e-108
2.932479743e-108
2.9324797438e-108
2.93247979845e-108
2.93248351503e-108
2.93271768542e-108
2.94770375139e-108
3.1546446911e-108
4.22743586209e-14
6.11574000503e-08
1.93985044517e-07
2.18772554661e-07
2.21705958139e-07
2.24330050714e-07
2.2783893024e-07
2.27982287019e-07
2.26388463435e-07
2.24404859223e-07
2.2227226236e-07
2.20077858262e-07
2.17813474588e-07
2.15500804636e-07
2.13130734051e-07
2.10703385822e-07
2.08315760997e-07
2.0580424851e-07
2.03268143487e-07
2.00714131e-07
1.98167204464e-07
1.95635807391e-07
1.93226090812e-07
1.90781019618e-07
1.88411868948e-07
1.86139098597e-07
1.83972578974e-07
1.81945879087e-07
1.80067325386e-07
1.78436145158e-07
1.76902223446e-07
1.75565593594e-07
1.74436132261e-07
1.73520878996e-07
1.72825189024e-07
1.72355746823e-07
1.72110999992e-07
2.93247974291e-108
2.93247974291e-108
2.93247974291e-108
2.93247974291e-108
2.93247974292e-108
2.93247974292e-108
2.93247974292e-108
2.93247974292e-108
2.93247974292e-108
2.93247974292e-108
2.93247974292e-108
2.93247974292e-108
2.93247974292e-108
2.93247974292e-108
2.93247974293e-108
2.93247974293e-108
2.93247974293e-108
2.93247974293e-108
2.93247974293e-108
2.93247974293e-108
2.93247974293e-108
2.93247974293e-108
2.93247974293e-108
2.93247974293e-108
2.93247974294e-108
2.93247974294e-108
2.93247974295e-108
2.93247974397e-108
2.93247981292e-108
2.93248443919e-108
2.93277157368e-108
2.95070775791e-108
1.69995253263e-43
3.07469733545e-13
7.20347555901e-08
1.97347631394e-07
2.21009751795e-07
2.25507198526e-07
2.30334505419e-07
2.3373080798e-07
2.33636288421e-07
2.31938006713e-07
2.29818158307e-07
2.27557437814e-07
2.25217807514e-07
2.22810349512e-07
2.20339984758e-07
2.17817973131e-07
2.15333623228e-07
2.12733041711e-07
2.10094225108e-07
2.07444628939e-07
2.04784107637e-07
2.02135202431e-07
1.99593425905e-07
1.97009761873e-07
1.94484153462e-07
1.92045223104e-07
1.89700270418e-07
1.87480386988e-07
1.8548379596e-07
1.83552998083e-07
1.81796293161e-07
1.80229342889e-07
1.78861745325e-07
1.77702346949e-07
1.76762631455e-07
1.76051499367e-07
1.75571297958e-07
1.75322997205e-07
2.93247974287e-108
2.93247974287e-108
2.93247974287e-108
2.93247974287e-108
2.93247974287e-108
2.93247974287e-108
2.93247974287e-108
2.93247974288e-108
2.93247974288e-108
2.93247974288e-108
2.93247974288e-108
2.93247974288e-108
2.93247974288e-108
2.93247974288e-108
2.93247974288e-108
2.93247974288e-108
2.93247974288e-108
2.93247974289e-108
2.93247974289e-108
2.93247974289e-108
2.93247974289e-108
2.93247974289e-108
2.93247974289e-108
2.93247974289e-108
2.93247974289e-108
2.93247974289e-108
2.93247974291e-108
2.93247974415e-108
2.93247982738e-108
2.93248533476e-108
2.93282709146e-108
2.95328949909e-108
3.801541932e-43
1.1224441475e-12
8.09606291398e-08
2.0006550902e-07
2.23527164407e-07
2.29467033626e-07
2.37001692338e-07
2.4055219144e-07
2.40294490342e-07
2.38394959328e-07
2.36050039296e-07
2.33588415063e-07
2.31057866369e-07
2.28470470917e-07
2.25827883e-07
2.23225044652e-07
2.20503278642e-07
2.17755448595e-07
2.14979956973e-07
2.12200579051e-07
2.09418986803e-07
2.06738706472e-07
2.04009702961e-07
2.01326640378e-07
1.98709614256e-07
1.96190570607e-07
1.93856230764e-07
1.9156568297e-07
1.89416172406e-07
1.87434657811e-07
1.85631983791e-07
1.84021217195e-07
1.82615225399e-07
1.81516458579e-07
1.80552207524e-07
1.79818863116e-07
1.79321281561e-07
1.79067485301e-07
2.93247974284e-108
2.93247974284e-108
2.93247974284e-108
2.93247974284e-108
2.93247974284e-108
2.93247974284e-108
2.93247974284e-108
2.93247974284e-108
2.93247974284e-108
2.93247974284e-108
2.93247974284e-108
2.93247974285e-108
2.93247974285e-108
2.93247974285e-108
2.93247974285e-108
2.93247974285e-108
2.93247974285e-108
2.93247974285e-108
2.93247974285e-108
2.93247974285e-108
2.93247974285e-108
2.93247974285e-108
2.93247974285e-108
2.93247974285e-108
2.93247974286e-108
2.93247974286e-108
2.93247974288e-108
2.93247974435e-108
2.93247984267e-108
2.93248634353e-108
2.93291377381e-108
2.95572945458e-108
6.24143374641e-43
3.0891786432e-12
8.90895544926e-08
2.02771510608e-07
2.26656369336e-07
2.34480862769e-07
2.43781807164e-07
2.48347329143e-07
2.47713816384e-07
2.45461752617e-07
2.42886302415e-07
2.40220407319e-07
2.37499078918e-07
2.3472093108e-07
2.31983097595e-07
2.29127967817e-07
2.26243349654e-07
2.23330703209e-07
2.20407914103e-07
2.17568709266e-07
2.1465972756e-07
2.1176701617e-07
2.08922046787e-07
2.06127859058e-07
2.03502666154e-07
2.0087927987e-07
1.98382029934e-07
1.96015498623e-07
1.93800865596e-07
1.9175851789e-07
1.89984649575e-07
1.88328743881e-07
1.86878998767e-07
1.8565416226e-07
1.84663443702e-07
1.83909883487e-07
1.83397537118e-07
1.83135832602e-07
2.93247974281e-108
2.93247974281e-108
2.93247974281e-108
2.93247974281e-108
2.93247974281e-108
2.93247974281e-108
2.93247974281e-108
2.93247974281e-108
2.93247974281e-108
2.93247974282e-108
2.93247974282e-108
2.93247974282e-108
2.93247974282e-108
2.93247974282e-108
2.93247974282e-108
2.93247974282e-108
2.93247974282e-108
2.93247974282e-108
2.93247974282e-108
2.93247974282e-108
2.93247974282e-108
2.93247974282e-108
2.93247974282e-108
2.93247974283e-108
2.93247974283e-108
2.93247974283e-108
2.93247974285e-108
2.9324797446e-108
2.93247986213e-108
2.93248783623e-108
2.93303250933e-108
2.95829219204e-108
8.68164346094e-43
7.12930121576e-12
9.68144934389e-08
2.05289843755e-07
2.29828463725e-07
2.40720997694e-07
2.51692460116e-07
2.56143103654e-07
2.55688553146e-07
2.53224153283e-07
2.50387847129e-07
2.47497508879e-07
2.44552597951e-07
2.41570131329e-07
2.38629307919e-07
2.35573905879e-07
2.32503876937e-07
2.29418085177e-07
2.26415293457e-07
2.23336354078e-07
2.20280551408e-07
2.17255208667e-07
2.14281531156e-07
2.11455644719e-07
2.0863428751e-07
2.05913889763e-07
2.03325237303e-07
2.0096739481e-07
1.98680238374e-07
1.9656372711e-07
1.94645923487e-07
1.92937704036e-07
1.91443611288e-07
1.90182129154e-07
1.89160995192e-07
1.88474831823e-07
1.87941611017e-07
1.87669046907e-07
2.93247974278e-108
2.93247974279e-108
2.93247974279e-108
2.93247974279e-108
2.93247974279e-108
2.93247974279e-108
2.93247974279e-108
2.93247974279e-108
2.93247974279e-108
2.93247974279e-108
2.93247974279e-108
2.93247974279e-108
2.93247974279e-108
2.93247974279e-108
2.9324797428e-108
2.9324797428e-108
2.9324797428e-108
2.9324797428e-108
2.9324797428e-108
2.9324797428e-108
2.9324797428e-108
2.9324797428e-108
2.9324797428e-108
2.9324797428e-108
2.9324797428e-108
2.9324797428e-108
2.93247974283e-108
2.93247974493e-108
2.93247988922e-108
2.93248988608e-108
2.93318078735e-108
2.96114299521e-108
1.14187234815e-42
1.58675462579e-11
1.04561676382e-07
2.07962908679e-07
2.33933376967e-07
2.47028872458e-07
2.59727566248e-07
2.65068275642e-07
2.64306161491e-07
2.6155522313e-07
2.58468706129e-07
2.55318993656e-07
2.52143483522e-07
2.49006668814e-07
2.45761282078e-07
2.42506884871e-07
2.39235990019e-07
2.36047016802e-07
2.32783471869e-07
2.29540854792e-07
2.2632564865e-07
2.23242015528e-07
2.20136183941e-07
2.17099318245e-07
2.14163456044e-07
2.1142667224e-07
2.08738245231e-07
2.06203376815e-07
2.038319952e-07
2.01650818313e-07
1.99672137838e-07
1.97992794816e-07
1.96453776899e-07
1.95152699359e-07
1.94094053086e-07
1.93284963859e-07
1.92730715715e-07
1.92449376092e-07
2.93247974276e-108
2.93247974277e-108
2.93247974277e-108
2.93247974277e-108
2.93247974277e-108
2.93247974277e-108
2.93247974277e-108
2.93247974277e-108
2.93247974277e-108
2.93247974277e-108
2.93247974277e-108
2.93247974277e-108
2.93247974277e-108
2.93247974277e-108
2.93247974278e-108
2.93247974278e-108
2.93247974278e-108
2.93247974278e-108
2.93247974278e-108
2.93247974278e-108
2.93247974278e-108
2.93247974278e-108
2.93247974278e-108
2.93247974278e-108
2.93247974278e-108
2.93247974278e-108
2.93247974282e-108
2.93247974542e-108
2.93247992906e-108
2.93249268379e-108
2.93336861675e-108
2.96457424805e-108
1.47106114265e-42
3.54618427042e-11
1.13141205582e-07
2.10911197828e-07
2.38198268634e-07
2.54512650257e-07
2.6862298048e-07
2.74335805759e-07
2.73393359098e-07
2.70408191704e-07
2.67043222285e-07
2.63623129325e-07
2.60258436448e-07
2.56804749387e-07
2.5333149128e-07
2.49853861305e-07
2.46463239665e-07
2.42991449402e-07
2.39549155521e-07
2.3613181444e-07
2.32839619811e-07
2.29524080307e-07
2.26271250369e-07
2.2311112479e-07
2.2013423287e-07
2.17204522274e-07
2.14407755873e-07
2.11784418572e-07
2.09418927463e-07
2.07159637994e-07
2.05108600632e-07
2.03284329087e-07
2.01696555254e-07
2.00349459405e-07
1.9925192359e-07
1.98508645894e-07
1.97933425448e-07
1.97642774305e-07
2.93247974275e-108
2.93247974275e-108
2.93247974275e-108
2.93247974275e-108
2.93247974275e-108
2.93247974275e-108
2.93247974275e-108
2.93247974275e-108
2.93247974275e-108
2.93247974275e-108
2.93247974276e-108
2.93247974276e-108
2.93247974276e-108
2.93247974276e-108
2.93247974276e-108
2.93247974276e-108
2.93247974276e-108
2.93247974276e-108
2.93247974276e-108
2.93247974276e-108
2.93247974276e-108
2.93247974276e-108
2.93247974276e-108
2.93247974276e-108
2.93247974276e-108
2.93247974276e-108
2.93247974281e-108
2.93247974618e-108
2.93247998702e-108
2.93249652044e-108
2.9336196183e-108
2.9687319391e-108
1.89986412529e-42
8.93822588956e-11
1.21277227068e-07
2.14109385203e-07
2.43027339959e-07
2.62471425395e-07
2.78276368106e-07
2.84191275038e-07
2.83031131123e-07
2.79726659776e-07
2.76054399534e-07
2.72426140649e-07
2.68720841069e-07
2.65007769463e-07
2.61299601973e-07
2.57672736777e-07
2.53975539818e-07
2.5030896278e-07
2.46749770788e-07
2.43153837148e-07
2.39611227542e-07
2.36134608299e-07
2.32819745174e-07
2.29523233273e-07
2.2633514141e-07
2.23288357192e-07
2.20482713055e-07
2.1775271027e-07
2.15217499788e-07
2.12877260998e-07
2.10852732053e-07
2.08966131319e-07
2.07319739842e-07
2.05928105037e-07
2.04796721832e-07
2.03929510581e-07
2.03329498785e-07
2.03022571996e-07
2.93247974273e-108
2.93247974273e-108
2.93247974273e-108
2.93247974274e-108
2.93247974274e-108
2.93247974274e-108
2.93247974274e-108
2.93247974274e-108
2.93247974274e-108
2.93247974274e-108
2.93247974274e-108
2.93247974274e-108
2.93247974274e-108
2.93247974274e-108
2.93247974274e-108
2.93247974274e-108
2.93247974274e-108
2.93247974274e-108
2.93247974274e-108
2.93247974275e-108
2.93247974275e-108
2.93247974275e-108
2.93247974275e-108
2.93247974275e-108
2.93247974275e-108
2.93247974275e-108
2.93247974281e-108
2.93247974727e-108
2.93248006541e-108
2.93250151237e-108
2.93394470797e-108
2.97418793206e-108
2.42956521514e-42
3.10166299958e-10
1.2991734299e-07
2.17745599189e-07
2.48852285396e-07
2.71145710384e-07
2.88320657608e-07
2.94473108611e-07
2.93077199772e-07
2.89444290511e-07
2.85524746965e-07
2.81519937791e-07
2.77524929375e-07
2.73550501069e-07
2.69668683618e-07
2.65732260818e-07
2.61816369116e-07
2.58014916143e-07
2.54175432805e-07
2.50394208318e-07
2.467579804e-07
2.43120320491e-07
2.39568442192e-07
2.36133561449e-07
2.32902373484e-07
2.29738222151e-07
2.26733249742e-07
2.23904199874e-07
2.21361186452e-07
2.18946497097e-07
2.16760384298e-07
2.14813050797e-07
2.13114830421e-07
2.11771514315e-07
2.10600345039e-07
2.09698899953e-07
2.09070098217e-07
2.08747489257e-07
2.93247974272e-108
2.93247974272e-108
2.93247974272e-108
2.93247974272e-108
2.93247974272e-108
2.93247974272e-108
2.93247974272e-108
2.93247974273e-108
2.93247974273e-108
2.93247974273e-108
2.93247974273e-108
2.93247974273e-108
2.93247974273e-108
2.93247974273e-108
2.93247974273e-108
2.93247974273e-108
2.93247974273e-108
2.93247974273e-108
2.93247974273e-108
2.93247974273e-108
2.93247974273e-108
2.93247974273e-108
2.93247974273e-108
2.93247974273e-108
2.93247974273e-108
2.93247974274e-108
2.93247974282e-108
2.93247974888e-108
2.93248017634e-108
2.93250841736e-108
2.93438678165e-108
2.98158991724e-108
3.1935777616e-42
1.87161774064e-09
1.4009099013e-07
2.21601265325e-07
2.54426541951e-07
2.80574554872e-07
2.99743852493e-07
3.05542166724e-07
3.0356891151e-07
2.99516393999e-07
2.9525134361e-07
2.90935640309e-07
2.8665124015e-07
2.82467842136e-07
2.782430806e-07
2.74052807802e-07
2.69986330836e-07
2.65889698695e-07
2.61851544757e-07
2.57954925885e-07
2.54064496233e-07
2.50258791809e-07
2.46644441685e-07
2.43061482449e-07
2.39621161978e-07
2.36414813225e-07
2.33301325624e-07
2.30376313992e-07
2.27654562494e-07
2.25252283905e-07
2.22990277441e-07
2.20974910505e-07
2.19222688013e-07
2.17738895153e-07
2.16528378789e-07
2.1559251238e-07
2.14938409242e-07
2.14593948077e-07
2.93247974271e-108
2.93247974271e-108
2.93247974271e-108
2.93247974271e-108
2.93247974271e-108
2.93247974271e-108
2.93247974271e-108
2.93247974271e-108
2.93247974271e-108
2.93247974271e-108
2.93247974272e-108
2.93247974272e-108
2.93247974272e-108
2.93247974272e-108
2.93247974272e-108
2.93247974272e-108
2.93247974272e-108
2.93247974272e-108
2.93247974272e-108
2.93247974272e-108
2.93247974272e-108
2.93247974272e-108
2.93247974272e-108
2.93247974272e-108
2.93247974272e-108
2.93247974272e-108
2.93247974285e-108
2.93247975134e-108
2.93248033892e-108
2.93251832914e-108
2.93501948341e-108
2.99277922422e-108
2.9542940489e-29
6.21181607226e-09
1.51657175681e-07
2.26151683654e-07
2.61598206007e-07
2.90534774046e-07
3.1132066349e-07
3.1666651668e-07
3.14183869017e-07
3.09826184388e-07
3.05178074464e-07
3.00561025902e-07
2.9605127741e-07
2.91520439992e-07
2.87105136967e-07
2.82663107391e-07
2.78283136706e-07
2.74044574454e-07
2.69793093318e-07
2.65630892692e-07
2.61638615699e-07
2.57668770917e-07
2.53816557686e-07
2.50184301897e-07
2.46602086986e-07
2.43194722298e-07
2.39967011305e-07
2.37034163844e-07
2.34216194565e-07
2.3164301294e-07
2.29311425782e-07
2.2732894102e-07
2.25516543531e-07
2.23979873932e-07
2.22725356092e-07
2.2175460667e-07
2.21070928779e-07
2.20706256128e-07
2.9324797427e-108
2.9324797427e-108
2.9324797427e-108
2.9324797427e-108
2.9324797427e-108
2.9324797427e-108
2.9324797427e-108
2.9324797427e-108
2.9324797427e-108
2.9324797427e-108
2.93247974271e-108
2.93247974271e-108
2.93247974271e-108
2.93247974271e-108
2.93247974271e-108
2.93247974271e-108
2.93247974271e-108
2.93247974271e-108
2.93247974271e-108
2.93247974271e-108
2.93247974271e-108
2.93247974271e-108
2.93247974271e-108
2.93247974271e-108
2.93247974271e-108
2.93247974271e-108
2.93247974289e-108
2.9324797549e-108
2.9324805741e-108
2.93253301817e-108
2.93600618788e-108
3.01039981409e-108
1.07728734292e-28
1.2499708572e-08
1.63237154097e-07
2.31318450835e-07
2.69609657859e-07
3.01390877289e-07
3.22655848041e-07
3.28010855089e-07
3.25096584294e-07
3.20294046055e-07
3.15294944847e-07
3.10419304063e-07
3.05537497362e-07
3.00784969067e-07
2.96027471455e-07
2.9134210067e-07
2.86792457916e-07
2.82251683769e-07
2.77873710702e-07
2.73515821413e-07
2.69266068078e-07
2.65212568764e-07
2.61202478679e-07
2.57340367812e-07
2.53723573263e-07
2.50190158747e-07
2.46855953341e-07
2.4373903122e-07
2.40930647078e-07
2.38271882663e-07
2.35869954359e-07
2.33727833011e-07
2.31951581846e-07
2.30365122485e-07
2.29069536004e-07
2.28062519098e-07
2.27346196055e-07
2.26955256327e-07
2.93247974269e-108
2.93247974269e-108
2.93247974269e-108
2.93247974269e-108
2.93247974269e-108
2.93247974269e-108
2.93247974269e-108
2.93247974269e-108
2.93247974269e-108
2.9324797427e-108
2.9324797427e-108
2.9324797427e-108
2.9324797427e-108
2.9324797427e-108
2.9324797427e-108
2.9324797427e-108
2.9324797427e-108
2.9324797427e-108
2.9324797427e-108
2.9324797427e-108
2.9324797427e-108
2.9324797427e-108
2.9324797427e-108
2.9324797427e-108
2.9324797427e-108
2.93247974271e-108
2.93247974296e-108
2.9324797603e-108
2.93248093594e-108
2.93255625724e-108
2.93752236693e-108
3.03472356828e-108
1.87097442696e-22
1.96645914333e-08
1.73412111082e-07
2.37265236818e-07
2.78343395338e-07
3.13226354195e-07
3.34728756894e-07
3.39459043255e-07
3.36015837715e-07
3.30833949341e-07
3.25560863048e-07
3.20289475299e-07
3.15169167673e-07
3.10059689196e-07
3.05027370295e-07
3.00153100135e-07
2.95294378179e-07
2.90609371672e-07
2.85942745126e-07
2.81471960277e-07
2.77046241201e-07
2.7274383151e-07
2.68676707254e-07
2.64672588209e-07
2.60841085249e-07
2.57281865864e-07
2.53842524284e-07
2.5061905401e-07
2.47638044835e-07
2.44996251837e-07
2.42522081199e-07
2.40316416905e-07
2.38393217233e-07
2.368542614e-07
2.35513547608e-07
2.34468785618e-07
2.33717601421e-07
2.33302622547e-07
2.93247974268e-108
2.93247974268e-108
2.93247974268e-108
2.93247974268e-108
2.93247974268e-108
2.93247974268e-108
2.93247974269e-108
2.93247974269e-108
2.93247974269e-108
2.93247974269e-108
2.93247974269e-108
2.93247974269e-108
2.93247974269e-108
2.93247974269e-108
2.93247974269e-108
2.93247974269e-108
2.93247974269e-108
2.93247974269e-108
2.93247974269e-108
2.93247974269e-108
2.93247974269e-108
2.93247974269e-108
2.93247974269e-108
2.93247974269e-108
2.93247974269e-108
2.9324797427e-108
2.93247974308e-108
2.9324797692e-108
2.93248154013e-108
2.9325943626e-108
2.93998958679e-108
3.06993974789e-108
6.76134355072e-22
2.86879458147e-08
1.82569615445e-07
2.44107195006e-07
2.87706997677e-07
3.25803921523e-07
3.47499711511e-07
3.51024712409e-07
3.46950271219e-07
3.41359353908e-07
3.35729397941e-07
3.30135429623e-07
3.24698105018e-07
3.19310725306e-07
3.1407410182e-07
3.08888909557e-07
3.03864768874e-07
2.98881043965e-07
2.94095416617e-07
2.89362711929e-07
2.848366386e-07
2.80372000994e-07
2.76075648157e-07
2.72023788163e-07
2.68073338042e-07
2.64317175448e-07
2.60863820222e-07
2.57544920402e-07
2.54482522821e-07
2.51765669631e-07
2.4922420095e-07
2.46957227377e-07
2.44978796198e-07
2.43295963149e-07
2.41999274824e-07
2.40918049669e-07
2.4013542508e-07
2.39690450974e-07
2.93247974267e-108
2.93247974268e-108
2.93247974268e-108
2.93247974268e-108
2.93247974268e-108
2.93247974268e-108
2.93247974268e-108
2.93247974268e-108
2.93247974268e-108
2.93247974268e-108
2.93247974268e-108
2.93247974268e-108
2.93247974268e-108
2.93247974268e-108
2.93247974268e-108
2.93247974268e-108
2.93247974268e-108
2.93247974268e-108
2.93247974268e-108
2.93247974268e-108
2.93247974268e-108
2.93247974268e-108
2.93247974269e-108
2.93247974269e-108
2.93247974269e-108
2.9324797427e-108
2.9324797433e-108
2.93247978418e-108
2.93248254143e-108
2.93265679268e-108
2.94388005052e-108
3.12002638706e-108
1.40529098312e-16
3.98330143405e-08
1.91526121963e-07
2.52182672945e-07
2.99052824795e-07
3.39326784396e-07
3.60069633052e-07
3.62483176457e-07
3.57733881784e-07
3.51790921481e-07
3.45757735366e-07
3.39907143738e-07
3.34123788842e-07
3.28516531021e-07
3.23028201899e-07
3.17584374616e-07
3.12342565473e-07
3.0715083285e-07
3.02100845735e-07
2.97258346915e-07
2.92496685499e-07
2.87967373446e-07
2.83518374972e-07
2.79341759027e-07
2.7527506491e-07
2.71420010418e-07
2.67870379423e-07
2.64463370476e-07
2.61314718434e-07
2.58439340577e-07
2.55922569651e-07
2.53603135229e-07
2.5157306294e-07
2.49840348075e-07
2.48413573295e-07
2.47384281015e-07
2.46565238914e-07
2.46080959905e-07
2.93247974267e-108
2.93247974267e-108
2.93247974267e-108
2.93247974267e-108
2.93247974267e-108
2.93247974267e-108
2.93247974267e-108
2.93247974267e-108
2.93247974267e-108
2.93247974267e-108
2.93247974267e-108
2.93247974267e-108
2.93247974267e-108
2.93247974267e-108
2.93247974267e-108
2.93247974268e-108
2.93247974268e-108
2.93247974268e-108
2.93247974268e-108
2.93247974268e-108
2.93247974268e-108
2.93247974268e-108
2.93247974268e-108
2.93247974268e-108
2.93247974268e-108
2.93247974269e-108
2.93247974368e-108
2.93247981005e-108
2.93248424115e-108
2.93275956935e-108
2.9498632262e-108
1.10763420733e-44
4.1797810073e-14
5.46870404056e-08
2.00768645533e-07
2.6107125219e-07
3.11911745129e-07
3.53044875394e-07
3.72911062072e-07
3.73718973309e-07
3.68287815491e-07
3.61919097169e-07
3.55634848288e-07
3.49432023899e-07
3.43427866993e-07
3.37561338565e-07
3.31753034125e-07
3.26138183592e-07