/*--------------------------------*- C++ -*----------------------------------*\
| =========                 |                                                 |
| \\      /  F ield         | foam-extend: Open Source CFD                    |
|  \\    /   O peration     | Version:     4.1                                |
|   \\  /    A nd           | Web:         http://www.foam-extend.org         |
|    \\/     M anipulation  |                                                 |
\*---------------------------------------------------------------------------*/
FoamFile
{
    version     2.0;
    format      ascii;
    class       volScalarField;
    location    "0.0002";
    object      OPlus;
}
// * * * * * * * * * * * * * * * * * * * * * * * * * * * * * * * * * * * * * //

dimensions      [0 0 0 0 0 0 0];

internalField   nonuniform List<scalar> 
8400
(
6.45488963057e-195
6.45488963062e-195
6.45488963066e-195
6.4548896307e-195
6.45488963074e-195
6.45488963079e-195
6.45488963083e-195
6.45488963087e-195
6.4548896309e-195
6.45488963094e-195
6.45488963098e-195
6.45488963102e-195
6.45488963105e-195
6.45488963109e-195
6.45488963112e-195
6.45488963116e-195
6.45488963119e-195
6.45488963123e-195
6.45488963126e-195
6.45488963129e-195
6.45488963132e-195
6.45488963135e-195
6.45488963138e-195
6.45488963141e-195
6.45488963144e-195
6.45488963147e-195
6.4548896315e-195
6.45488963153e-195
6.45488963168e-195
6.45488964044e-195
6.45489025624e-195
6.4549313259e-195
6.45767097119e-195
6.53783529609e-195
7.66338627239e-73
6.22041859447e-13
0.000297050988252
0.0491946015623
0.10099656284
0.131723969482
0.145536269197
0.151028785384
0.152903628918
0.15373458294
0.154300766349
0.154821825133
0.155315003555
0.155839658358
0.156379132479
0.156936521788
0.157486632942
0.158076412729
0.158680878568
0.15930007539
0.159931344904
0.160550007183
0.161198298495
0.16184519739
0.162486081206
0.163112069371
0.163690183841
0.164265624065
0.164804896223
0.165296592076
0.165734778039
0.166112998359
0.166425775782
0.166665922174
0.166831258151
0.167024558737
6.45488962384e-195
6.45488962386e-195
6.45488962387e-195
6.45488962389e-195
6.45488962391e-195
6.45488962392e-195
6.45488962394e-195
6.45488962395e-195
6.45488962397e-195
6.45488962398e-195
6.454889624e-195
6.45488962401e-195
6.45488962403e-195
6.45488962404e-195
6.45488962406e-195
6.45488962407e-195
6.45488962408e-195
6.4548896241e-195
6.45488962411e-195
6.45488962412e-195
6.45488962414e-195
6.45488962415e-195
6.45488962416e-195
6.45488962417e-195
6.45488962419e-195
6.4548896242e-195
6.45488962421e-195
6.45488962424e-195
6.45488962526e-195
6.45488969541e-195
6.45489450337e-195
6.45520090046e-195
6.47540649848e-195
6.79162271886e-195
3.61070797539e-26
5.51338757053e-06
0.019258270251
0.0772429344206
0.120078038336
0.142035554334
0.150775682755
0.153862553472
0.154909561884
0.155471778441
0.15594152001
0.15642550547
0.156905501403
0.157430414095
0.157975860427
0.15854232225
0.159128591618
0.159730943975
0.160348989596
0.160978563027
0.161618234092
0.162241508381
0.162889972445
0.163530229328
0.164157742984
0.164764700076
0.165346779541
0.165895980586
0.166404513907
0.166840829741
0.167246815823
0.167594891658
0.167880529418
0.168100274273
0.168250359241
0.168401544845
6.45488962171e-195
6.45488962172e-195
6.45488962173e-195
6.45488962174e-195
6.45488962175e-195
6.45488962176e-195
6.45488962177e-195
6.45488962178e-195
6.45488962178e-195
6.45488962179e-195
6.4548896218e-195
6.45488962181e-195
6.45488962182e-195
6.45488962183e-195
6.45488962184e-195
6.45488962184e-195
6.45488962185e-195
6.45488962186e-195
6.45488962187e-195
6.45488962188e-195
6.45488962188e-195
6.45488962189e-195
6.4548896219e-195
6.4548896219e-195
6.45488962191e-195
6.45488962192e-195
6.45488962193e-195
6.454889622e-195
6.45488962644e-195
6.45488992812e-195
6.45491068844e-195
6.45633428099e-195
6.51624822399e-195
3.79519178571e-73
5.69436037742e-15
0.000103891344576
0.0425975399889
0.0973668887084
0.131396509085
0.14711964945
0.152965818387
0.154944742507
0.155629141765
0.156122178896
0.156572980117
0.157039997607
0.157508437626
0.158022675728
0.158559080506
0.159117697164
0.159693872401
0.16028754907
0.160893642829
0.161509273271
0.162136640985
0.16274143929
0.1633662309
0.163980666086
0.164575739047
0.16515146643
0.165702160281
0.166219121173
0.16669599351
0.16710037437
0.167476188614
0.167795689311
0.168057778249
0.168258662089
0.168395508522
0.168524437373
6.45488962074e-195
6.45488962075e-195
6.45488962076e-195
6.45488962076e-195
6.45488962077e-195
6.45488962078e-195
6.45488962078e-195
6.45488962079e-195
6.4548896208e-195
6.4548896208e-195
6.45488962081e-195
6.45488962082e-195
6.45488962082e-195
6.45488962083e-195
6.45488962083e-195
6.45488962084e-195
6.45488962084e-195
6.45488962085e-195
6.45488962086e-195
6.45488962086e-195
6.45488962087e-195
6.45488962087e-195
6.45488962088e-195
6.45488962088e-195
6.45488962089e-195
6.45488962089e-195
6.4548896209e-195
6.45488962112e-195
6.45488963674e-195
6.45489072486e-195
6.45496170133e-195
6.45969625484e-195
6.57367864198e-195
5.72624462322e-49
1.80904817964e-08
0.00281119324645
0.0589740358126
0.109066307859
0.137090162586
0.149132708929
0.153531950286
0.154928531779
0.155540211863
0.156044819844
0.156496435084
0.156983365673
0.15749011826
0.158016289511
0.158563134216
0.159129660838
0.159711963114
0.160309786741
0.160918882159
0.161536100476
0.162135967431
0.162761550652
0.163377415096
0.163981070333
0.164563607596
0.165123928229
0.165658620486
0.166133679626
0.166595211802
0.16700706716
0.167366877411
0.167672430071
0.167921380676
0.168111417747
0.16823978819
0.168357768989
6.45488962021e-195
6.45488962022e-195
6.45488962022e-195
6.45488962023e-195
6.45488962023e-195
6.45488962024e-195
6.45488962024e-195
6.45488962025e-195
6.45488962025e-195
6.45488962026e-195
6.45488962026e-195
6.45488962027e-195
6.45488962027e-195
6.45488962028e-195
6.45488962028e-195
6.45488962029e-195
6.45488962029e-195
6.45488962029e-195
6.4548896203e-195
6.4548896203e-195
6.45488962031e-195
6.45488962031e-195
6.45488962031e-195
6.45488962032e-195
6.45488962032e-195
6.45488962033e-195
6.45488962034e-195
6.45488962084e-195
6.45488965598e-195
6.45489213432e-195
6.45505590101e-195
6.46621553012e-195
6.67769842064e-195
7.46806845725e-35
1.36012982799e-06
0.0121810228023
0.070037349184
0.115896064293
0.139813035001
0.149709744294
0.15328647767
0.154403805822
0.154982132248
0.155485844258
0.155989910904
0.156504862956
0.157035968382
0.157586306432
0.158153275968
0.158738131171
0.159337136951
0.159948154721
0.160571422076
0.161176416058
0.161806714774
0.16243489485
0.163054182042
0.163658204116
0.16424245218
0.164775473068
0.165304563503
0.165796820595
0.166249302846
0.166656873885
0.167012449534
0.167313421069
0.167557791647
0.167743203044
0.167868239409
0.167981718836
6.45488961988e-195
6.45488961988e-195
6.45488961989e-195
6.45488961989e-195
6.45488961989e-195
6.4548896199e-195
6.4548896199e-195
6.45488961991e-195
6.45488961991e-195
6.45488961991e-195
6.45488961992e-195
6.45488961992e-195
6.45488961993e-195
6.45488961993e-195
6.45488961993e-195
6.45488961994e-195
6.45488961994e-195
6.45488961994e-195
6.45488961995e-195
6.45488961995e-195
6.45488961995e-195
6.45488961996e-195
6.45488961996e-195
6.45488961996e-195
6.45488961997e-195
6.45488961997e-195
6.45488961999e-195
6.45488962089e-195
6.4548896844e-195
6.45489412054e-195
6.45518220892e-195
6.47450860951e-195
6.78551242794e-195
2.59590494885e-26
5.48667828007e-06
0.0192474876294
0.0769682415095
0.11940301453
0.140937612794
0.149506686851
0.152516910131
0.153534348601
0.154111274018
0.154633731191
0.155161409802
0.15570294426
0.156261763016
0.156836631316
0.15742864053
0.158036166408
0.158657379549
0.159289172607
0.159903743691
0.160545646473
0.16118958689
0.161826001605
0.162452988179
0.163064612519
0.16362871512
0.164192158071
0.164722940668
0.16521950599
0.16567412888
0.166081300169
0.166436380141
0.166736753183
0.166980781267
0.167140794716
0.16726799052
0.167407318584
6.45488961965e-195
6.45488961965e-195
6.45488961966e-195
6.45488961966e-195
6.45488961966e-195
6.45488961967e-195
6.45488961967e-195
6.45488961967e-195
6.45488961968e-195
6.45488961968e-195
6.45488961968e-195
6.45488961969e-195
6.45488961969e-195
6.45488961969e-195
6.4548896197e-195
6.4548896197e-195
6.4548896197e-195
6.45488961971e-195
6.45488961971e-195
6.45488961971e-195
6.45488961971e-195
6.45488961972e-195
6.45488961972e-195
6.45488961972e-195
6.45488961973e-195
6.45488961973e-195
6.45488961975e-195
6.45488962113e-195
6.45488971738e-195
6.45489636028e-195
6.4553214374e-195
6.48319979817e-195
6.89015870956e-195
3.54640465987e-22
1.24002356183e-05
0.0247738599095
0.0815679179337
0.121517074744
0.140817964651
0.148776293349
0.151408871401
0.152363339536
0.152950320037
0.153500470328
0.154057779254
0.154630480568
0.155218925054
0.155823250101
0.156442526708
0.157074601055
0.157695580547
0.158348710958
0.159006802239
0.159668064513
0.160325090943
0.160976354376
0.161615520938
0.162213675407
0.162812865237
0.163383923052
0.163924982216
0.16442603805
0.164885067665
0.165296884807
0.165630298536
0.165934861442
0.166181597348
0.16636915565
0.16649620599
0.166609151918
6.45488961948e-195
6.45488961948e-195
6.45488961949e-195
6.45488961949e-195
6.45488961949e-195
6.4548896195e-195
6.4548896195e-195
6.4548896195e-195
6.45488961951e-195
6.45488961951e-195
6.45488961951e-195
6.45488961951e-195
6.45488961952e-195
6.45488961952e-195
6.45488961952e-195
6.45488961953e-195
6.45488961953e-195
6.45488961953e-195
6.45488961953e-195
6.45488961954e-195
6.45488961954e-195
6.45488961954e-195
6.45488961954e-195
6.45488961955e-195
6.45488961955e-195
6.45488961955e-195
6.45488961958e-195
6.45488962148e-195
6.4548897522e-195
6.45489864175e-195
6.45545874489e-195
6.49130333964e-195
6.98627741322e-195
8.19170365437e-19
2.1814066955e-05
0.0288935503856
0.084444801874
0.122043203525
0.140512210276
0.147593148813
0.15000159773
0.150923438783
0.151535861705
0.152124705249
0.152717330297
0.153324923689
0.153943694597
0.154577592965
0.155226497799
0.155862372498
0.156533140524
0.157209391036
0.157891594925
0.158572496204
0.159249562015
0.159891884159
0.160545748911
0.161180227599
0.16179151307
0.162376435651
0.162925484305
0.16343698551
0.163879556863
0.164297539265
0.164661198672
0.16496961877
0.165220529378
0.165412046719
0.165541987935
0.165655978265
6.45488961935e-195
6.45488961936e-195
6.45488961936e-195
6.45488961936e-195
6.45488961937e-195
6.45488961937e-195
6.45488961937e-195
6.45488961937e-195
6.45488961938e-195
6.45488961938e-195
6.45488961938e-195
6.45488961938e-195
6.45488961939e-195
6.45488961939e-195
6.45488961939e-195
6.45488961939e-195
6.4548896194e-195
6.4548896194e-195
6.4548896194e-195
6.4548896194e-195
6.45488961941e-195
6.45488961941e-195
6.45488961941e-195
6.45488961941e-195
6.45488961941e-195
6.45488961942e-195
6.45488961945e-195
6.45488962188e-195
6.45488978681e-195
6.45490085219e-195
6.45558763814e-195
6.49848850728e-195
6.95013549742e-74
2.08060388563e-17
3.44271045606e-05
0.031855048692
0.0864353723044
0.122201482735
0.139321051432
0.1460971125
0.148388452138
0.149281452469
0.149917065455
0.150531858311
0.151157038598
0.15179649442
0.152451426215
0.153119420076
0.153775704298
0.154464584019
0.155163139263
0.155865280516
0.156572934041
0.15727803929
0.157952978921
0.158640053408
0.159311383011
0.159960726965
0.160587467833
0.161184452002
0.161721963777
0.162245296818
0.162721533205
0.163146517936
0.163517430905
0.163832600144
0.164088691951
0.164282905538
0.164414231512
0.164527385995
6.45488961925e-195
6.45488961926e-195
6.45488961926e-195
6.45488961926e-195
6.45488961927e-195
6.45488961927e-195
6.45488961927e-195
6.45488961927e-195
6.45488961927e-195
6.45488961928e-195
6.45488961928e-195
6.45488961928e-195
6.45488961928e-195
6.45488961929e-195
6.45488961929e-195
6.45488961929e-195
6.45488961929e-195
6.45488961929e-195
6.4548896193e-195
6.4548896193e-195
6.4548896193e-195
6.4548896193e-195
6.4548896193e-195
6.45488961931e-195
6.45488961931e-195
6.45488961931e-195
6.45488961936e-195
6.45488962231e-195
6.45488982139e-195
6.4549029943e-195
6.45572042898e-195
6.50466367469e-195
1.54723352559e-73
1.62392517545e-16
4.8349782261e-05
0.0345391111761
0.0877038795774
0.122021189776
0.137778498264
0.144270988346
0.146469935302
0.147370062402
0.148051193504
0.148710608016
0.14937880711
0.150059071024
0.150753040859
0.151435479499
0.152150717122
0.152871847476
0.153600628137
0.154333415133
0.155070365852
0.15577780258
0.156499793692
0.157207290645
0.15789852241
0.158566910977
0.159188675277
0.159802618407
0.160378807068
0.160911081917
0.161396902312
0.161831879624
0.162213295011
0.162509364915
0.162771396127
0.162969710283
0.163103713783
0.163215734063
6.45488961917e-195
6.45488961918e-195
6.45488961918e-195
6.45488961918e-195
6.45488961918e-195
6.45488961919e-195
6.45488961919e-195
6.45488961919e-195
6.45488961919e-195
6.45488961919e-195
6.4548896192e-195
6.4548896192e-195
6.4548896192e-195
6.4548896192e-195
6.45488961921e-195
6.45488961921e-195
6.45488961921e-195
6.45488961921e-195
6.45488961921e-195
6.45488961921e-195
6.45488961922e-195
6.45488961922e-195
6.45488961922e-195
6.45488961922e-195
6.45488961922e-195
6.45488961923e-195
6.45488961928e-195
6.45488962281e-195
6.45488985796e-195
6.45490540713e-195
6.45592776116e-195
6.51049971038e-195
2.52871979859e-73
9.04925410632e-16
6.4892716272e-05
0.0363882158482
0.0883016544761
0.121263767214
0.136147128939
0.142125564742
0.144313348417
0.145268747709
0.145996616458
0.146700557873
0.147410560284
0.148133069088
0.148842628522
0.149586264234
0.150337051635
0.151095992437
0.151860458411
0.152604293976
0.153370800228
0.154131982878
0.15487796811
0.155609048567
0.156295629965
0.156988572153
0.157652637636
0.158284152249
0.158875363073
0.159420797511
0.159893028501
0.160338077966
0.160729243511
0.161060534943
0.161328114506
0.161530382101
0.161666370198
0.161777459532
6.45488961911e-195
6.45488961911e-195
6.45488961911e-195
6.45488961912e-195
6.45488961912e-195
6.45488961912e-195
6.45488961912e-195
6.45488961912e-195
6.45488961913e-195
6.45488961913e-195
6.45488961913e-195
6.45488961913e-195
6.45488961913e-195
6.45488961913e-195
6.45488961914e-195
6.45488961914e-195
6.45488961914e-195
6.45488961914e-195
6.45488961914e-195
6.45488961915e-195
6.45488961915e-195
6.45488961915e-195
6.45488961915e-195
6.45488961915e-195
6.45488961915e-195
6.45488961916e-195
6.45488961922e-195
6.45488962341e-195
6.45488990452e-195
6.45490897745e-195
6.45621176009e-195
6.51662942354e-195
3.5002595978e-73
3.82117742836e-15
8.54577922552e-05
0.0383021431766
0.0887733581266
0.119957848891
0.134114523438
0.139962442973
0.141980112881
0.142953183413
0.143736571174
0.144490403361
0.145249555687
0.146017725198
0.146771921074
0.147559532969
0.148350208603
0.149147797806
0.149924753333
0.150728272831
0.151527539237
0.152320078161
0.153097301728
0.153830961514
0.154566434499
0.155278948158
0.155963276321
0.156587503965
0.157195569656
0.157757121298
0.158266032167
0.158721154753
0.159121494634
0.159461370179
0.159737693919
0.159919333762
0.16006020981
0.160171153429
6.45488961905e-195
6.45488961906e-195
6.45488961906e-195
6.45488961906e-195
6.45488961906e-195
6.45488961906e-195
6.45488961907e-195
6.45488961907e-195
6.45488961907e-195
6.45488961907e-195
6.45488961907e-195
6.45488961907e-195
6.45488961908e-195
6.45488961908e-195
6.45488961908e-195
6.45488961908e-195
6.45488961908e-195
6.45488961908e-195
6.45488961909e-195
6.45488961909e-195
6.45488961909e-195
6.45488961909e-195
6.45488961909e-195
6.45488961909e-195
6.4548896191e-195
6.4548896191e-195
6.45488961917e-195
6.45488962419e-195
6.45488996931e-195
6.45491388042e-195
6.45656642058e-195
6.52344814997e-195
4.5780954228e-73
1.66250141273e-14
0.000112999233184
0.0399736192847
0.0886991652894
0.118654564557
0.132045732031
0.137448744979
0.139446763783
0.140456467094
0.14128735652
0.14209786213
0.142909044316
0.143706008743
0.144534101685
0.145363856999
0.146200700549
0.147015245129
0.14785517637
0.148693285703
0.149528667246
0.150328637932
0.151136507471
0.151924171726
0.152686405857
0.153398393957
0.15410529616
0.154774010246
0.155400074174
0.155975945272
0.156499872035
0.156942850576
0.157352933409
0.157699414756
0.157981091715
0.158195395528
0.158340407342
0.158453881293
6.45488961901e-195
6.45488961901e-195
6.45488961901e-195
6.45488961901e-195
6.45488961901e-195
6.45488961902e-195
6.45488961902e-195
6.45488961902e-195
6.45488961902e-195
6.45488961902e-195
6.45488961902e-195
6.45488961903e-195
6.45488961903e-195
6.45488961903e-195
6.45488961903e-195
6.45488961903e-195
6.45488961903e-195
6.45488961904e-195
6.45488961904e-195
6.45488961904e-195
6.45488961904e-195
6.45488961904e-195
6.45488961904e-195
6.45488961904e-195
6.45488961905e-195
6.45488961905e-195
6.45488961914e-195
6.45488962537e-195
6.45489006461e-195
6.45492057215e-195
6.4570156825e-195
6.53165523165e-195
5.85918164111e-73
7.8471822677e-14
0.000158495954736
0.0415259757287
0.0886814022357
0.116951476264
0.129724084191
0.13482709748
0.136759015586
0.137786500673
0.138669933152
0.139538208896
0.140385803819
0.141257546564
0.142134735053
0.14301454103
0.143872437462
0.144756744676
0.145635939635
0.14651327538
0.147359451091
0.14821649412
0.149056479697
0.149872813694
0.15063994817
0.151401324822
0.152131005726
0.152819237519
0.153436939378
0.154031041126
0.154571881981
0.155055116348
0.155475550191
0.155830931484
0.156119528871
0.15631049989
0.156460537098
0.156576789736
6.45488961897e-195
6.45488961897e-195
6.45488961897e-195
6.45488961897e-195
6.45488961897e-195
6.45488961898e-195
6.45488961898e-195
6.45488961898e-195
6.45488961898e-195
6.45488961898e-195
6.45488961898e-195
6.45488961899e-195
6.45488961899e-195
6.45488961899e-195
6.45488961899e-195
6.45488961899e-195
6.45488961899e-195
6.45488961899e-195
6.454889619e-195
6.454889619e-195
6.454889619e-195
6.454889619e-195
6.454889619e-195
6.454889619e-195
6.454889619e-195
6.45488961901e-195
6.45488961912e-195
6.45488962717e-195
6.45489020323e-195
6.45492974889e-195
6.45761604345e-195
6.54159985296e-195
7.50651122225e-73
5.46267229414e-13
0.000226027142357
0.0431366848817
0.0885371576255
0.115176861071
0.127194400618
0.132020373325
0.133884867225
0.134952918598
0.135898359597
0.136803823061
0.137730260008
0.138657305779
0.139584913436
0.140491367513
0.141421929949
0.142348380027
0.143249803638
0.14416694676
0.145073807636
0.145967157869
0.14681527985
0.147662392434
0.148483226335
0.149270314285
0.149995662024
0.150706796232
0.151366837801
0.151978511254
0.152506144405
0.153004076395
0.153439139615
0.153805044236
0.154100679788
0.154325206455
0.154477960769
0.154593126346
6.45488961893e-195
6.45488961893e-195
6.45488961894e-195
6.45488961894e-195
6.45488961894e-195
6.45488961894e-195
6.45488961894e-195
6.45488961894e-195
6.45488961894e-195
6.45488961895e-195
6.45488961895e-195
6.45488961895e-195
6.45488961895e-195
6.45488961895e-195
6.45488961895e-195
6.45488961895e-195
6.45488961896e-195
6.45488961896e-195
6.45488961896e-195
6.45488961896e-195
6.45488961896e-195
6.45488961896e-195
6.45488961896e-195
6.45488961896e-195
6.45488961897e-195
6.45488961897e-195
6.45488961912e-195
6.45488962979e-195
6.45489039073e-195
6.45494168888e-195
6.45839361292e-195
6.55464983265e-195
9.50044364182e-73
1.20574362486e-11
0.000355632018575
0.0447243758952
0.0880814930802
0.113265451039
0.124582927391
0.12907371581
0.130860775984
0.131969473956
0.132955002926
0.133945004112
0.134932201078
0.13591650471
0.136875779474
0.137855093579
0.138832939212
0.139783372234
0.140751573152
0.141709709453
0.142631578227
0.143559997543
0.144467774932
0.145347651951
0.146172621147
0.146986057499
0.147760215949
0.148491461521
0.149147362133
0.14977513825
0.150344337679
0.150854027278
0.151301209181
0.151650615983
0.151955842122
0.152186592164
0.152343470502
0.152457242594
6.4548896189e-195
6.4548896189e-195
6.4548896189e-195
6.45488961891e-195
6.45488961891e-195
6.45488961891e-195
6.45488961891e-195
6.45488961891e-195
6.45488961891e-195
6.45488961891e-195
6.45488961892e-195
6.45488961892e-195
6.45488961892e-195
6.45488961892e-195
6.45488961892e-195
6.45488961892e-195
6.45488961892e-195
6.45488961893e-195
6.45488961893e-195
6.45488961893e-195
6.45488961893e-195
6.45488961893e-195
6.45488961893e-195
6.45488961893e-195
6.45488961893e-195
6.45488961894e-195
6.45488961914e-195
6.45488963362e-195
6.45489065605e-195
6.45495820467e-195
6.45945099197e-195
6.57235435628e-195
1.23147832963e-72
1.48960443703e-09
0.000714776382917
0.0466936190859
0.0880929154856
0.111218973445
0.121568336122
0.125870597473
0.127665158793
0.128839068615
0.129895445154
0.130949887621
0.131997043557
0.133018616783
0.134057487414
0.135091745595
0.13609582257
0.13711648146
0.138128006983
0.139105611019
0.140089110533
0.141054020685
0.141969757421
0.142882953865
0.14376145541
0.144578275916
0.145377131481
0.146128784039
0.146830794769
0.147448504008
0.148035587378
0.148560696817
0.149018117695
0.149404440576
0.149716775952
0.149954251711
0.150115007053
0.150229812056
6.45488961887e-195
6.45488961888e-195
6.45488961888e-195
6.45488961888e-195
6.45488961888e-195
6.45488961888e-195
6.45488961888e-195
6.45488961888e-195
6.45488961889e-195
6.45488961889e-195
6.45488961889e-195
6.45488961889e-195
6.45488961889e-195
6.45488961889e-195
6.45488961889e-195
6.45488961889e-195
6.4548896189e-195
6.4548896189e-195
6.4548896189e-195
6.4548896189e-195
6.4548896189e-195
6.4548896189e-195
6.4548896189e-195
6.4548896189e-195
6.4548896189e-195
6.45488961891e-195
6.4548896192e-195
6.45488963951e-195
6.45489104494e-195
6.45498191228e-195
6.46096432697e-195
6.59911762925e-195
3.7797074527e-47
4.4288727136e-08
0.00176532765877
0.0484594472818
0.087553132465
0.109149418411
0.118547144931
0.122614672732
0.124383565275
0.125587550388
0.126722851121
0.127837604649
0.128926229788
0.130025756114
0.131096774436
0.132184458224
0.13326255918
0.134307315501
0.135365494785
0.136407281855
0.137408036635
0.138410303091
0.139385417745
0.140302299803
0.141212492062
0.142078911222
0.142902310095
0.143649117875
0.144373389983
0.14503576468
0.145638908943
0.146148200606
0.146617926421
0.147014440194
0.147335175862
0.147579085505
0.147745053681
0.147860983542
6.45488961885e-195
6.45488961885e-195
6.45488961885e-195
6.45488961885e-195
6.45488961886e-195
6.45488961886e-195
6.45488961886e-195
6.45488961886e-195
6.45488961886e-195
6.45488961886e-195
6.45488961886e-195
6.45488961886e-195
6.45488961887e-195
6.45488961887e-195
6.45488961887e-195
6.45488961887e-195
6.45488961887e-195
6.45488961887e-195
6.45488961887e-195
6.45488961887e-195
6.45488961888e-195
6.45488961888e-195
6.45488961888e-195
6.45488961888e-195
6.45488961888e-195
6.45488961889e-195
6.4548896193e-195
6.45488964802e-195
6.45489160744e-195
6.4550170464e-195
6.46332438744e-195
6.64126364035e-195
1.33641262812e-46
3.04414923749e-07
0.00388155295072
0.0503121146043
0.0869351182481
0.106912871377
0.115625240561
0.119251262866
0.120958445644
0.122226133432
0.123429411078
0.124592519168
0.125764646996
0.126905324386
0.128055590776
0.129193720458
0.130301439478
0.131416581152
0.132494353187
0.133577907958
0.134641377426
0.135656198943
0.136667336819
0.137643098122
0.138553920512
0.139448741419
0.14029490129
0.141089991617
0.141805052847
0.142487576959
0.143103362042
0.143653102155
0.144103981571
0.144511364227
0.144841091037
0.145092090011
0.145263344471
0.145379859451
6.45488961883e-195
6.45488961883e-195
6.45488961883e-195
6.45488961883e-195
6.45488961883e-195
6.45488961884e-195
6.45488961884e-195
6.45488961884e-195
6.45488961884e-195
6.45488961884e-195
6.45488961884e-195
6.45488961884e-195
6.45488961884e-195
6.45488961884e-195
6.45488961885e-195
6.45488961885e-195
6.45488961885e-195
6.45488961885e-195
6.45488961885e-195
6.45488961885e-195
6.45488961885e-195
6.45488961885e-195
6.45488961885e-195
6.45488961886e-195
6.45488961886e-195
6.45488961887e-195
6.45488961947e-195
6.45488966095e-195
6.45489247291e-195
6.45507263103e-195
6.46695087779e-195
6.69944269239e-195
7.37427284114e-35
1.03805807771e-06
0.00684981115878
0.0522086883821
0.086376876786
0.104487315275
0.112477577601
0.115790545269
0.117458478478
0.118776304196
0.120021526871
0.121268454481
0.122482062836
0.123704259106
0.124914113166
0.12608603955
0.127266623643
0.128406421648
0.129553246104
0.130652940407
0.13175306562
0.132829959046
0.133846731354
0.134854790408
0.135820640826
0.13671416785
0.137583503625
0.138401343319
0.139162183112
0.139833407803
0.140466536252
0.141029012016
0.141517820727
0.141902037767
0.142240018975
0.142498044437
0.142675776433
0.142794048377
6.45488961881e-195
6.45488961881e-195
6.45488961881e-195
6.45488961881e-195
6.45488961881e-195
6.45488961882e-195
6.45488961882e-195
6.45488961882e-195
6.45488961882e-195
6.45488961882e-195
6.45488961882e-195
6.45488961882e-195
6.45488961882e-195
6.45488961882e-195
6.45488961883e-195
6.45488961883e-195
6.45488961883e-195
6.45488961883e-195
6.45488961883e-195
6.45488961883e-195
6.45488961883e-195
6.45488961883e-195
6.45488961883e-195
6.45488961884e-195
6.45488961884e-195
6.45488961885e-195
6.45488961977e-195
6.45488968223e-195
6.45489391805e-195
6.45516377378e-195
6.47285212605e-195
6.78367491778e-195
2.8515349933e-31
2.82164447578e-06
0.0101375633532
0.0541077731095
0.085934841037
0.101956708936
0.109090173264
0.112215495368
0.113865518535
0.11524174943
0.116556299173
0.117868890855
0.119147188357
0.120425796228
0.121670414461
0.122913221314
0.124119987237
0.125331798458
0.126497790186
0.127663494386
0.128780264025
0.129890812529
0.130964633369
0.131976200785
0.13296865076
0.13391309507
0.134777624021
0.135616345979
0.136393919169
0.137080298464
0.137727845611
0.138303226339
0.138803237195
0.139225537948
0.139542565558
0.139808217275
0.139991936223
0.140111441982
6.45488961879e-195
6.45488961879e-195
6.45488961879e-195
6.4548896188e-195
6.4548896188e-195
6.4548896188e-195
6.4548896188e-195
6.4548896188e-195
6.4548896188e-195
6.4548896188e-195
6.4548896188e-195
6.4548896188e-195
6.45488961881e-195
6.45488961881e-195
6.45488961881e-195
6.45488961881e-195
6.45488961881e-195
6.45488961881e-195
6.45488961881e-195
6.45488961881e-195
6.45488961881e-195
6.45488961881e-195
6.45488961882e-195
6.45488961882e-195
6.45488961882e-195
6.45488961884e-195
6.45488962029e-195
6.45488971808e-195
6.45489631304e-195
6.45531309788e-195
6.48215757661e-195
6.90347522339e-195
1.40721895529e-22
6.60449494853e-06
0.013626259395
0.0557981188692
0.0849332028975
0.0992266826497
0.10572234894
0.108565360852
0.110213621466
0.111632327419
0.113031782417
0.114388930752
0.115745128847
0.117062507471
0.118357715881
0.119654054485
0.120905042315
0.122160496457
0.123391471031
0.124574299057
0.125749479308
0.126866813767
0.127974902865
0.129012944804
0.130032581568
0.131000500849
0.131886053825
0.132742358308
0.133535616652
0.134264757867
0.134898329864
0.135486003903
0.135996211292
0.136428081792
0.136780219057
0.137021489844
0.137209095996
0.137328975831
6.45488961878e-195
6.45488961878e-195
6.45488961878e-195
6.45488961878e-195
6.45488961878e-195
6.45488961878e-195
6.45488961878e-195
6.45488961878e-195
6.45488961879e-195
6.45488961879e-195
6.45488961879e-195
6.45488961879e-195
6.45488961879e-195
6.45488961879e-195
6.45488961879e-195
6.45488961879e-195
6.45488961879e-195
6.45488961879e-195
6.4548896188e-195
6.4548896188e-195
6.4548896188e-195
6.4548896188e-195
6.4548896188e-195
6.4548896188e-195
6.4548896188e-195
6.45488961884e-195
6.4548896212e-195
6.45488977995e-195
6.45490037852e-195
6.45555892544e-195
6.49646850438e-195
4.52867663935e-75
8.04915245104e-19
1.50188397685e-05
0.0174817212127
0.057768089636
0.0836549343164
0.0965448960031
0.102167049139
0.104850169774
0.106510640547
0.108003843876
0.109443675144
0.110876459455
0.112268283935
0.113637025054
0.115004652084
0.116329996844
0.117652156432
0.118926117152
0.120198905452
0.121415580559
0.122627058979
0.123774762207
0.124907716546
0.12599847575
0.127015618321
0.128005364577
0.128940263962
0.129786069743
0.130597532121
0.131340151482
0.131984704704
0.132583675465
0.133103469237
0.133543489785
0.13390268092
0.134150138007
0.134342697694
0.134462417434
6.45488961876e-195
6.45488961876e-195
6.45488961876e-195
6.45488961876e-195
6.45488961877e-195
6.45488961877e-195
6.45488961877e-195
6.45488961877e-195
6.45488961877e-195
6.45488961877e-195
6.45488961877e-195
6.45488961877e-195
6.45488961877e-195
6.45488961878e-195
6.45488961878e-195
6.45488961878e-195
6.45488961878e-195
6.45488961878e-195
6.45488961878e-195
6.45488961878e-195
6.45488961878e-195
6.45488961878e-195
6.45488961878e-195
6.45488961879e-195
6.45488961879e-195
6.45488961885e-195
6.45488962284e-195
6.45488988736e-195
6.4549070632e-195
6.455958469e-195
6.51562350301e-195
2.15737771999e-73
1.98786289451e-16
3.21571694839e-05
0.0217114860202
0.0590616695856
0.0824992662416
0.093720623209
0.0986456899082
0.10108116109
0.102765976371
0.104305346118
0.105827346935
0.107302615046
0.10875047363
0.11019393057
0.111588528883
0.112978950117
0.114321782911
0.115635953919
0.116944016089
0.118195857551
0.119436618506
0.120642921049
0.121780160355
0.122894763199
0.123932975927
0.12494101281
0.125894920378
0.126755950913
0.127579467555
0.128335824464
0.128990428463
0.129599595481
0.130128936625
0.130577332128
0.130944165147
0.131196908502
0.131394669914
0.131516693386
6.45488961875e-195
6.45488961875e-195
6.45488961875e-195
6.45488961875e-195
6.45488961875e-195
6.45488961875e-195
6.45488961875e-195
6.45488961876e-195
6.45488961876e-195
6.45488961876e-195
6.45488961876e-195
6.45488961876e-195
6.45488961876e-195
6.45488961876e-195
6.45488961876e-195
6.45488961876e-195
6.45488961877e-195
6.45488961877e-195
6.45488961877e-195
6.45488961877e-195
6.45488961877e-195
6.45488961877e-195
6.45488961877e-195
6.45488961877e-195
6.45488961877e-195
6.45488961888e-195
6.45488962586e-195
6.45489008882e-195
6.45492105606e-195
6.45700151357e-195
6.53963363576e-195
5.33981570119e-73
1.92507075369e-14
7.09061602526e-05
0.0259141371018
0.0603290884893
0.0810323241493
0.0905825744283
0.0950674465565
0.0973203252475
0.0990168141408
0.100610644273