/*--------------------------------*- C++ -*----------------------------------*\
| =========                 |                                                 |
| \\      /  F ield         | foam-extend: Open Source CFD                    |
|  \\    /   O peration     | Version:     4.1                                |
|   \\  /    A nd           | Web:         http://www.foam-extend.org         |
|    \\/     M anipulation  |                                                 |
\*---------------------------------------------------------------------------*/
FoamFile
{
    version     2.0;
    format      ascii;
    class       volScalarField;
    location    "0.0002";
    object      p;
}
// * * * * * * * * * * * * * * * * * * * * * * * * * * * * * * * * * * * * * //

dimensions      [1 -1 -2 0 0 0 0];

internalField   nonuniform List<scalar> 
8400
(
66.7281849651
66.7281849651
66.7281849652
66.7281849652
66.7281849653
66.7281849653
66.7281849654
66.7281849654
66.7281849655
66.7281849655
66.7281849656
66.7281849656
66.7281849657
66.7281849657
66.7281849658
66.7281849658
66.7281849659
66.7281849659
66.728184966
66.728184966
66.728184966
66.7281849661
66.7281849661
66.7281849662
66.7281849662
66.7281849662
66.7281849663
66.7281849663
66.7281849665
66.728184978
66.728185786
66.7282396707
66.7318341783
66.8370124914
124.842263316
1236.21570736
6648.27025382
29374.9271532
76102.8921191
148714.632105
220206.162196
261599.793372
275165.101821
277950.368099
278215.650015
278034.774183
277761.086072
277516.564609
277294.033422
277109.434222
276926.900141
276777.473527
276624.600722
276482.014917
276372.508067
276278.290226
276235.418978
276196.416389
276162.563238
276139.625576
276101.802511
276096.444289
276090.681845
276089.025394
276095.93032
276114.264261
276148.520911
276199.572178
276272.414584
277478.386999
66.7281849562
66.7281849563
66.7281849563
66.7281849563
66.7281849563
66.7281849563
66.7281849564
66.7281849564
66.7281849564
66.7281849564
66.7281849564
66.7281849565
66.7281849565
66.7281849565
66.7281849565
66.7281849565
66.7281849566
66.7281849566
66.7281849566
66.7281849566
66.7281849566
66.7281849566
66.7281849567
66.7281849567
66.7281849567
66.7281849567
66.7281849567
66.7281849567
66.7281849581
66.7281850501
66.7281913583
66.7285933617
66.7551037916
67.1699901974
506.469357771
3084.83209001
15848.7613334
48163.5508764
109606.817518
187869.765501
247884.949298
274215.66093
281208.63406
282815.261634
283388.158238
283804.493093
284147.711872
284491.575286
284819.523221
285140.152666
285449.824981
285735.710499
285994.853557
286234.386454
286478.867817
286704.776228
286946.409998
287160.531025
287356.48697
287539.316776
287713.650935
287878.715591
288027.472057
288117.362588
288214.755097
288304.949215
288393.93842
288484.863882
288574.148777
289449.495886
66.7281849534
66.7281849534
66.7281849535
66.7281849535
66.7281849535
66.7281849535
66.7281849535
66.7281849535
66.7281849535
66.7281849535
66.7281849536
66.7281849536
66.7281849536
66.7281849536
66.7281849536
66.7281849536
66.7281849536
66.7281849536
66.7281849536
66.7281849537
66.7281849537
66.7281849537
66.7281849537
66.7281849537
66.7281849537
66.7281849537
66.7281849537
66.7281849538
66.7281849596
66.7281853555
66.7282125937
66.7300803954
66.8086895206
94.7950249424
1006.00504893
5364.88234594
25638.2159854
69205.3473496
140961.952421
216614.43825
262928.7018
279030.589603
282702.964869
283697.987427
284188.679114
284598.703183
284961.522269
285327.875098
285669.688344
285995.860667
286299.999025
286576.029726
286820.325427
287047.013671
287284.171688
287494.182126
287707.512451
287877.303329
288014.218026
288148.327125
288295.686027
288442.335555
288572.290967
288642.658702
288708.419508
288757.7107
288815.705235
288882.060871
288949.024953
289644.495328
66.7281849522
66.7281849522
66.7281849522
66.7281849522
66.7281849522
66.7281849522
66.7281849522
66.7281849522
66.7281849522
66.7281849522
66.7281849523
66.7281849523
66.7281849523
66.7281849523
66.7281849523
66.7281849523
66.7281849523
66.7281849523
66.7281849523
66.7281849523
66.7281849523
66.7281849523
66.7281849523
66.7281849523
66.7281849524
66.7281849524
66.7281849524
66.7281849527
66.7281849732
66.7281864008
66.7282795243
66.7344914191
66.8840401768
181.686363324
1862.16907923
9419.07575316
34702.0612469
86850.2555988
163454.590886
233282.220748
269602.536932
280286.201784
282614.399545
283369.027375
283791.607524
284167.874793
284507.630034
284821.771526
285117.817234
285397.530239
285656.457183
285893.166814
286108.495374
286320.592713
286511.21901
286720.393698
286894.249868
287030.403502
287135.448212
287235.906853
287356.837469
287455.570289
287566.2569
287638.912715
287685.718336
287721.653689
287757.884223
287796.546125
287832.407358
288429.701564
66.7281849515
66.7281849515
66.7281849515
66.7281849515
66.7281849515
66.7281849515
66.7281849515
66.7281849515
66.7281849515
66.7281849515
66.7281849515
66.7281849515
66.7281849515
66.7281849516
66.7281849516
66.7281849516
66.7281849516
66.7281849516
66.7281849516
66.7281849516
66.7281849516
66.7281849516
66.7281849516
66.7281849516
66.7281849516
66.7281849516
66.7281849516
66.7281849523
66.7281849984
66.7281882501
66.7284031175
66.7430449294
67.0205176543
330.075512172
2569.30463853
13227.8770204
42365.0951313
100368.201461
178542.051074
242668.589866
272346.485729
280174.141409
281866.424193
282461.655706
282858.356092
283193.376799
283499.820571
283786.316799
284051.811519
284299.00171
284527.346108
284739.536658
284946.921053
285120.664768
285311.480894
285484.105067
285632.737757
285751.178226
285851.127172
285912.04302
285998.590982
286078.57329
286154.338697
286219.372251
286269.025715
286306.715763
286338.455882
286365.727554
286389.340363
286943.645554
66.728184951
66.728184951
66.728184951
66.728184951
66.7281849511
66.7281849511
66.7281849511
66.7281849511
66.7281849511
66.7281849511
66.7281849511
66.7281849511
66.7281849511
66.7281849511
66.7281849511
66.7281849511
66.7281849511
66.7281849511
66.7281849511
66.7281849511
66.7281849511
66.7281849511
66.7281849511
66.7281849511
66.7281849511
66.7281849512
66.7281849512
66.7281849524
66.7281850357
66.728190856
66.7285688378
66.7539257308
67.1619732885
499.808812868
3085.5626352
15903.7408389
48421.7168143
110275.11763
188680.358637
248011.501519
273116.854747
279342.194728
280695.880608
281198.788423
281543.807233
281845.521309
282129.46472
282398.024064
282650.801521
282884.013469
283099.666664
283302.740438
283463.39458
283631.96335
283784.811693
283923.017146
284045.569363
284151.799767
284207.525227
284272.737433
284332.032472
284408.531984
284491.161914
284555.58611
284588.133302
284602.542946
284627.36734
284637.617849
284676.556266
285252.281202
66.7281849507
66.7281849507
66.7281849507
66.7281849507
66.7281849507
66.7281849508
66.7281849508
66.7281849508
66.7281849508
66.7281849508
66.7281849508
66.7281849508
66.7281849508
66.7281849508
66.7281849508
66.7281849508
66.7281849508
66.7281849508
66.7281849508
66.7281849508
66.7281849508
66.7281849508
66.7281849508
66.7281849508
66.7281849508
66.7281849508
66.7281849509
66.7281849527
66.728185079
66.7281937947
66.7287515103
66.7653288651
67.2992727591
648.683926908
3527.71671901
18091.2921229
53217.3281381
117751.855611
195284.216505
250958.369816
272865.389245
278037.52596
279157.320546
279600.817565
279915.08066
280190.640108
280449.986281
280698.965914
280932.733511
281150.338622
281324.701221
281504.708552
281663.697185
281810.291647
281937.91049
282049.1211
282149.213188
282213.420397
282288.854863
282347.711404
282403.4372
282455.73846
282506.296316
282555.762841
282569.082923
282601.930785
282625.958658
282650.591025
282674.960263
283205.643401
66.7281849505
66.7281849505
66.7281849505
66.7281849505
66.7281849505
66.7281849505
66.7281849505
66.7281849505
66.7281849505
66.7281849505
66.7281849506
66.7281849506
66.7281849506
66.7281849506
66.7281849506
66.7281849506
66.7281849506
66.7281849506
66.7281849506
66.7281849506
66.7281849506
66.7281849506
66.7281849506
66.7281849506
66.7281849506
66.7281849506
66.7281849506
66.7281849531
66.7281851246
66.728196788
66.7289316623
66.7759609864
67.4253837582
751.911186416
3917.75179696
19874.0009227
56986.1047312
123108.531183
200100.738134
252371.973449
271939.956963
276347.153188
277285.060766
277685.109766
277981.231214
278238.654607
278471.630523
278692.586577
278907.1638
279079.757065
279258.310127
279414.877066
279561.230424
279690.07855
279803.115177
279865.357165
279932.650565
279982.778586
280031.842727
280087.127958
280141.206994
280197.096639
280217.021319
280248.28859
280263.865423
280279.809052
280299.105387
280322.189678
280344.38214
280857.602205
66.7281849503
66.7281849503
66.7281849504
66.7281849504
66.7281849504
66.7281849504
66.7281849504
66.7281849504
66.7281849504
66.7281849504
66.7281849504
66.7281849504
66.7281849504
66.7281849504
66.7281849504
66.7281849504
66.7281849504
66.7281849504
66.7281849504
66.7281849504
66.7281849504
66.7281849504
66.7281849504
66.7281849504
66.7281849504
66.7281849504
66.7281849505
66.7281849537
66.72818517
66.7281996882
66.7291007747
66.78538817
72.3157308782
820.850075416
4284.53117943
21331.7159057
60106.6298475
127408.697478
203106.545762
252742.577541
270512.200268
274357.379575
275188.832721
275535.878284
275787.732906
276007.514201
276209.019249
276401.903449
276558.245194
276720.892525
276866.324177
277001.625131
277132.679386
277254.280298
277327.483302
277393.767779
277431.14844
277456.540215
277485.18542
277525.963179
277547.524841
277592.772321
277621.994677
277638.532299
277645.923088
277651.042297
277657.256513
277664.301523
277669.800395
278148.307351
66.7281849502
66.7281849502
66.7281849502
66.7281849502
66.7281849502
66.7281849502
66.7281849502
66.7281849502
66.7281849502
66.7281849502
66.7281849502
66.7281849502
66.7281849503
66.7281849503
66.7281849503
66.7281849503
66.7281849503
66.7281849503
66.7281849503
66.7281849503
66.7281849503
66.7281849503
66.7281849503
66.7281849503
66.7281849503
66.7281849503
66.7281849503
66.7281849542
66.7281852154
66.7282024987
66.7292750008
66.7934901991
78.3941509245
879.768158619
4607.24131697
22678.6491746
62750.4759796
130937.73161
205087.52568
252383.818376
268652.180841
272041.958581
272772.300023
273078.18459
273296.946152
273480.57721
273653.169219
273789.944475
273935.238081
274056.299187
274170.952532
274286.773176
274410.691863
274493.5054
274561.261918
274586.311954
274595.637008
274615.549537
274625.570922
274659.030883
274677.576913
274685.504429
274691.131219
274696.879204
274709.389241
274692.223284
274695.187752
274685.370777
274671.956256
275111.579913
66.7281849501
66.7281849501
66.7281849501
66.7281849501
66.7281849501
66.7281849501
66.7281849501
66.7281849501
66.7281849501
66.7281849501
66.7281849501
66.7281849501
66.7281849501
66.7281849501
66.7281849501
66.7281849502
66.7281849502
66.7281849502
66.7281849502
66.7281849502
66.7281849502
66.7281849502
66.7281849502
66.7281849502
66.7281849502
66.7281849502
66.7281849502
66.7281849549
66.7281852634
66.7282056644
66.7295470276
66.8011472758
85.5077476717
936.352060175
4919.96942198
23840.116304
65046.7707679
133815.889652
206623.783339
251452.546304
266419.633025
269455.249874
270092.251188
270350.883881
270527.636273
270676.936314
270787.605131
270913.094055
271019.629439
271112.501325
271208.087225
271290.561945
271396.548701
271473.867021
271499.702567
271490.949894
271447.106729
271452.560869
271472.014795
271492.076488
271490.935674
271476.534811
271438.328089
271434.013572
271434.821542
271435.316942
271426.324309
271404.802634
271373.905157
271769.093368
66.72818495
66.72818495
66.72818495
66.72818495
66.72818495
66.72818495
66.72818495
66.72818495
66.72818495
66.72818495
66.72818495
66.7281849501
66.7281849501
66.7281849501
66.7281849501
66.7281849501
66.7281849501
66.7281849501
66.7281849501
66.7281849501
66.7281849501
66.7281849501
66.7281849501
66.7281849501
66.7281849501
66.7281849501
66.7281849502
66.7281849557
66.7281853245
66.7282103488
66.7299196438
66.8091896674
92.7228105654
993.192441407
5241.36108512
25034.5387883
67282.6122838
136228.396958
207567.039838
250326.593605
263929.133847
266597.270545
267151.338956
267366.23245
267507.540577
267621.209859
267696.288321
267779.217864
267839.333588
267898.576496
267939.352143
268014.424354
268086.504739
268138.694827
268150.809876
268097.158806
268049.280517
268012.241018
268008.340354
267991.198641
267981.523458
267946.579544
267902.435672
267864.89019
267845.842806
267839.218517
267838.264109
267797.500346
267763.993233
268117.647786
66.7281849499
66.72818495
66.72818495
66.72818495
66.72818495
66.72818495
66.72818495
66.72818495
66.72818495
66.72818495
66.72818495
66.72818495
66.72818495
66.72818495
66.72818495
66.72818495
66.72818495
66.72818495
66.72818495
66.72818495
66.72818495
66.72818495
66.72818495
66.72818495
66.72818495
66.72818495
66.7281849501
66.7281849567
66.7281854095
66.7282167817
66.7303849704
66.8181360677
100.928417679
1057.35648408
5594.7814766
26241.0321864
69402.6903139
138644.819025
208372.961523
248724.781719
261175.842686
263510.325807
263955.393332
264115.023771
264213.313929
264267.032716
264328.158776
264365.68412
264398.734385
264401.239208
264427.712592
264453.961965
264492.786504
264496.281513
264487.995215
264436.596516
264369.00831
264290.39167
264258.469872
264230.309777
264193.635531
264140.373963
264089.631555
264023.033788
263988.793221
263951.221469
263914.221793
263873.408161
263827.234912
264169.369613
66.7281849499
66.7281849499
66.7281849499
66.7281849499
66.7281849499
66.7281849499
66.7281849499
66.7281849499
66.7281849499
66.7281849499
66.7281849499
66.7281849499
66.7281849499
66.7281849499
66.7281849499
66.7281849499
66.7281849499
66.7281849499
66.7281849499
66.7281849499
66.7281849499
66.7281849499
66.7281849499
66.7281849499
66.7281849499
66.7281849499
66.7281849501
66.7281849582
66.7281855345
66.7282255615
66.7309744173
66.8289040372
110.934451949
1133.97783878
6031.72881182
27517.6161591
71707.2080425
140928.333061
208955.934673
246950.494689
258198.304006
260177.053093
260504.494541
260610.667436
260651.082636
260682.905829
260690.256091
260690.412938
260663.165316
260659.143149
260646.555983
260644.822605
260623.494097
260612.111636
260570.789875
260504.236794
260403.428779
260326.590432
260257.312942
260193.833273
260102.501196
260030.354929
259962.505915
259909.241278
259857.108861
259793.751843
259729.21873
259644.288577
259597.12393
259927.885384
66.7281849498
66.7281849498
66.7281849498
66.7281849498
66.7281849498
66.7281849498
66.7281849498
66.7281849499
66.7281849499
66.7281849499
66.7281849499
66.7281849499
66.7281849499
66.7281849499
66.7281849499
66.7281849499
66.7281849499
66.7281849499
66.7281849499
66.7281849499
66.7281849499
66.7281849499
66.7281849499
66.7281849499
66.7281849499
66.7281849499
66.72818495
66.7281849606
66.7281857164
66.7282376017
66.7317621112
66.8419517177
124.153707616
1236.66275566
6528.11747273
28941.2871587
74192.9188356
143355.49672
209385.245005
244916.524707
254942.208314
256600.430072
256834.417819
256859.577953
256868.657335
256848.883088
256812.202076
256746.481343
256701.955477
256655.066671
256592.841085
256555.726179
256513.596146
256466.179424
256376.683126
256285.890022
256179.490229
256078.951565
255961.741245
255870.644515
255767.096709
255667.398448
255553.328198
255492.643888
255431.740633
255358.918781
255278.820428
255197.278511
255117.925766
255387.189724
66.7281849498
66.7281849498
66.7281849498
66.7281849498
66.7281849498
66.7281849498
66.7281849498
66.7281849498
66.7281849498
66.7281849498
66.7281849498
66.7281849498
66.7281849498
66.7281849498
66.7281849498
66.7281849498
66.7281849498
66.7281849498
66.7281849498
66.7281849498
66.7281849498
66.7281849498
66.7281849498
66.7281849498
66.7281849498
66.7281849498
66.72818495
66.728184964
66.7281859624
66.7282532673
66.7327823087
66.8590737336
140.872523019
1395.52010763
7164.62029948
30532.199734
76849.4322584
145945.994051
209791.890907
242672.004204
251466.449748
252808.399543
252914.765896
252887.576301
252834.375134
252769.125585
252671.97778
252585.485985
252498.307789
252392.101784
252312.587781
252235.366033
252139.408438
252056.784242
251954.667732
251837.507735
251690.025033
251559.892815
251427.063131
251301.01395
251154.256106
251033.122445
250917.576484
250821.76901
250749.445377
250653.608717
250570.415058
250468.630022
250363.238511
250574.740023
66.7281849497
66.7281849498
66.7281849498
66.7281849498
66.7281849498
66.7281849498
66.7281849498
66.7281849498
66.7281849498
66.7281849498
66.7281849498
66.7281849498
66.7281849498
66.7281849498
66.7281849498
66.7281849498
66.7281849498
66.7281849498
66.7281849498
66.7281849498
66.7281849498
66.7281849498
66.7281849498
66.7281849498
66.7281849498
66.7281849498
66.7281849501
66.7281849691
66.7281863105
66.7282749366
66.7341696259
66.8823026691
165.534870317
1690.16662842
8094.26623834
32426.9935755
80035.940598
148708.978313
209872.640121
240087.124598
247713.667586
248780.134943
248808.582011
248717.631529
248603.564312
248461.176604
248327.772361
248190.233978
248034.537752
247907.397505
247785.872626
247651.25515
247535.913206
247417.561866
247266.48448
247126.310055
246974.061291
246795.735804
246636.077817
246470.10805
246314.079796
246146.954914
246022.659014
245911.542725
245811.341
245711.346324
245603.981461
245487.7449
245364.94187
245530.165407
66.7281849497
66.7281849497
66.7281849497
66.7281849497
66.7281849497
66.7281849497
66.7281849497
66.7281849497
66.7281849497
66.7281849497
66.7281849497
66.7281849497
66.7281849497
66.7281849497
66.7281849497
66.7281849497
66.7281849497
66.7281849497
66.7281849497
66.7281849497
66.7281849497
66.7281849498
66.7281849498
66.7281849498
66.7281849498
66.7281849498
66.7281849501
66.7281849768
66.7281868208
66.7283060418
66.7361551728
66.9174169909
200.797340146
1990.0711286
9376.57525746
34527.4302522
83400.5736657
151763.965335
209972.766441
237323.622588
243768.884072
244538.210486
244484.680304
244325.569284
244136.731733
243955.680175
243742.130971
243556.98397
243377.732855
243182.196265
243016.56124
242858.131231
242687.023254
242535.984479
242377.363768
242183.021606
242002.05563
241803.374819
241612.850227
241405.868726
241235.7496
241067.900085
240919.868824
240761.106387
240636.465071
240508.721149
240376.955246
240240.512051
240100.941406
240224.401835
66.7281849497
66.7281849497
66.7281849497
66.7281849497
66.7281849497
66.7281849497
66.7281849497
66.7281849497
66.7281849497
66.7281849497
66.7281849497
66.7281849497
66.7281849497
66.7281849497
66.7281849497
66.7281849497
66.7281849497
66.7281849497
66.7281849497
66.7281849497
66.7281849497
66.7281849497
66.7281849497
66.7281849497
66.7281849497
66.7281849497
66.7281849503
66.728184988
66.7281875588
66.7283521389
66.7392516521
66.9727139869
253.278326877
2277.29922391
10878.5004875
36971.2880873
87169.6870997
154979.694254
210103.574511
234328.243615
239601.168884
240093.808035
239940.717984
239705.406763
239479.251119
239220.871914
238982.313822
238744.362859
238493.152923
238267.98668
238028.566442
237829.55624
237640.679313
237430.86901
237239.957968
237037.636486
236799.592455
236577.836635
236354.395529
236149.905717
235937.616434
235755.590919
235571.310133
235395.550977
235206.905293
235065.517546
234923.482045
234773.615904
234616.019392
234687.434891
66.7281849497
66.7281849497
66.7281849497
66.7281849497
66.7281849497
66.7281849497
66.7281849497
66.7281849497
66.7281849497
66.7281849497
66.7281849497
66.7281849497
66.7281849497
66.7281849497
66.7281849497
66.7281849497
66.7281849497
66.7281849497
66.7281849497
66.7281849497
66.7281849497
66.7281849497
66.7281849497
66.7281849497
66.7281849497
66.7281849497
66.7281849505
66.7281850049
66.7281886943
66.7284250679
66.7440097305
67.0490468763
332.33439145
2567.41118229
12490.4357785
39823.6900272
91488.9739499
158335.255866
209950.905712
231054.103254
235228.675868
235477.634224
235199.924564
234901.098623
234587.08872
234300.85397
234014.754996
233706.100388
233428.165092
233136.29527
232875.905869
232599.738623
232363.638618
232140.33336
231894.110467
231665.824608
231423.377881
231147.502013
230894.084175
230652.314175
230434.855513
230209.085992
230011.664339
229811.345982
229616.639462
229408.3968
229246.045258
229080.35288
228907.883276
228942.198223
66.7281849496
66.7281849496
66.7281849496
66.7281849496
66.7281849496
66.7281849496
66.7281849496
66.7281849496
66.7281849496
66.7281849496
66.7281849496
66.7281849496
66.7281849496
66.7281849496
66.7281849497
66.7281849497
66.7281849497
66.7281849497
66.7281849497
66.7281849497
66.7281849497
66.7281849497
66.7281849497
66.7281849497
66.7281849497
66.7281849497
66.7281849509
66.7281850328
66.7281905904
66.7285446503
66.7517523683
67.1595624128
449.991383875
2910.69760589
14211.4651982
43150.8978835
96430.8192523
161837.081416
209421.402513
227480.209167
230625.32515
230649.906176
230289.587428
229923.619271
229550.459421
229201.815508
228835.459209
228488.266658
228132.331936
227817.188819
227494.603698
227210.670552
226913.578038
226643.475457
226376.904033
226095.017817
225823.167766
225541.560076
225237.270144
224969.134131
224719.497467
224466.659254
224243.628506
224019.58447
223802.04151
223591.969644
223372.207525
223193.950654
223010.76174
222998.111978
66.7281849496
66.7281849496
66.7281849496
66.7281849496
66.7281849496
66.7281849496
66.7281849496
66.7281849496
66.7281849496
66.7281849496
66.7281849496
66.7281849496
66.7281849496
66.7281849496
66.7281849496
66.7281849496
66.7281849496
66.7281849496
66.7281849496
66.7281849496
66.7281849496
66.7281849496
66.7281849496
66.7281849496
66.7281849496
66.7281849497
66.7281849516
66.7281850799
66.7281937327
66.7287405685
66.7639614351
67.3167444769
606.946660815
3323.38336254
16149.8400802
46974.5057775
101701.374152
165346.681032
208674.706968
223586.603211
225807.939043
225617.765512
225194.091252
224745.780287
224333.524426
223906.286888
223477.030363
223074.656116
222662.283314
222299.010344
221957.997802
221613.662919
221299.258538
220967.782686
220665.438569
220339.08018
220042.301781
219740.502984
219410.576525
219105.338032
218812.876077
218553.119336
218291.878631
218054.759407
217814.069568
217580.603559
217363.903906
217132.542603
216920.708623
216846.187299
66.7281849496
66.7281849496
66.7281849496
66.7281849496
66.7281849496
66.7281849496
66.7281849496
66.7281849496
66.7281849496
66.7281849496
66.7281849496
66.7281849496
66.7281849496
66.7281849496
66.7281849496
66.7281849496
66.7281849496
66.7281849496
66.7281849496
66.7281849496
66.7281849496
66.7281849496
66.7281849496
66.7281849496
66.7281849496
66.7281849497
66.7281849528
66.7281851611
66.7281990667
66.7290631026
66.7827378577
67.8493467685
759.836575047
3860.32578197
18450.2577229
51549.0560173
107436.952982
168957.812528
207379.329662
219349.226386
220775.076992
220442.276053
219925.688692
219427.861417
218928.29225
218438.124303
217973.693636
217498.530359
217061.088133
216624.844645
216238.267935
215845.025681
215492.274248
215122.203102
214777.829539
214442.082827
214092.55357
213759.659176
213425.825551
213073.70033
212759.882621
212468.286111
212178.61824
211919.29597
211655.212498
211396.105674
211155.071624
210900.199334
210662.470303
210524.20354
66.7281849496
66.7281849496
66.7281849496
66.7281849496
66.7281849496
66.7281849496
66.7281849496
66.7281849496
66.7281849496
66.7281849496
66.7281849496
66.7281849496
66.7281849496
66.7281849496
66.7281849496
66.7281849496
66.7281849496
66.7281849496
66.7281849496
66.7281849496
66.7281849496
66.7281849496
66.7281849496
66.7281849496
66.7281849496
66.7281849497
66.7281849549
66.728185302
66.7282078373
66.7295873173
66.8078698655
83.1084816674
902.332418021
4540.37437371
21230.9924347
56643.1710037
113819.999213
172358.869457
205716.436985
214814.510175
215565.928218
215076.577231
214502.430494
213922.085718
213361.709087
212832.321466
212291.204565
211786.701026
211281.093031
210795.857056
210355.455005
209916.3025
209519.313582
209139.571475
208743.818545
208375.740249
207989.271601
207623.746545
207264.282011
206892.267327
206553.53662
206232.189646
205906.116287
205616.003696
205332.988231
205059.039695
204796.617329
204514.96991
204252.936546
204064.12858
66.7281849495
66.7281849496
66.7281849496
66.7281849496
66.7281849496
66.7281849496
66.7281849496
66.7281849496
66.7281849496
66.7281849496
66.7281849496
66.7281849496
66.7281849496
66.7281849496
66.7281849496
66.7281849496
66.7281849496
66.7281849496
66.7281849496
66.7281849496
66.7281849496
66.7281849496
66.7281849496
66.7281849496
66.7281849496
66.7281849497
66.7281849589
66.7281855663
66.7282261964
66.7309558272
66.839371974
107.666632134
1083.90084283
5463.94491281
24521.5975278
62571.3606303
120565.008116
175247.98822
203487.578813
210021.530866
210208.126232
209574.93305
208905.455014
208261.81883
207659.435157
207056.36144
206468.965972
205915.207621
205360.333522
204851.134487
204337.796057
203871.606782
203409.258788
202990.370688
202560.67438
202161.959994
201745.317184
201356.430914
200974.839618
200577.400957
200207.441092
199849.119998
199495.488492
199181.831654
198875.898161
198587.436865
198282.256533
197995.027504
197705.5907
197471.477848
66.7281849495
66.7281849495
66.7281849495
66.7281849495
66.7281849495
66.7281849495
66.7281849495
66.7281849495
66.7281849495
66.7281849495
66.7281849495
66.7281849495
66.7281849495
66.7281849496
66.7281849496
66.7281849496
66.7281849496
66.7281849496
66.7281849496
66.7281849496
66.7281849496
66.7281849496
66.7281849496
66.7281849496
66.7281849496
66.7281849498
66.728184968
66.7281862366
66.7282704007
66.7337423936
66.8858790598
148.142072792
1401.86892087
6745.73068115
28470.4305719
69246.9336374
127604.105207
177750.521398
200587.21249
204915.844359
204649.804747
203908.476795
203167.289013
202482.98223
201810.714582
201152.538506
200528.042103
199908.859925
199310.483758
198751.446657
198191.647306
197680.680606
197175.767527
196717.552722
196252.181373
195822.35984
195375.975134
194960.220929
194531.062585
194126.67011
193730.390496
193327.298382
192971.678532
192630.793809
192306.762425
191969.410454
191657.335712
191345.936977
191042.356349
190766.317264
66.7281849495
66.7281849495
66.7281849495
66.7281849495
66.7281849495
66.7281849495
66.7281849495
66.7281849495
66.7281849495
66.7281849495
66.7281849495
66.7281849495
66.7281849495
66.7281849495
66.7281849495
66.7281849495
66.7281849495
66.7281849495
66.7281849495
66.7281849495
66.7281849495
66.7281849495
66.7281849495
66.7281849495
66.7281849496
66.7281849501
66.7281849897
66.7281876574
66.7283552745
66.7388843393
66.9713328019
227.040241608
2109.47801197
8729.11788393
33186.8141468
76963.8590809
134506.345397
179408.529841
197032.272806
199539.206826
198956.914292
198119.532179
197338.600167
196576.148696
195844.522387
195121.571592
194440.375295
193771.432885
193126.567575
192527.14332
191929.559213
191380.347952
190832.716827
190332.887388
189829.625099
189365.270096
188890.70538
188455.091466
188002.618705
187577.371857
187158.076662
186731.182631
186343.326658
185971.370891
185595.084751
185262.873443
184932.472701
184601.554917
184277.455372
183950.671058
66.7281849495
66.7281849495
66.7281849495
66.7281849495
66.7281849495
66.7281849495
66.7281849495
66.7281849495
66.7281849495
66.7281849495
66.7281849495
66.7281849495
66.7281849495
66.7281849495
66.7281849495
66.7281849495
66.7281849495
66.7281849495
66.7281849495
66.7281849495
66.7281849495
66.7281849495
66.7281849495
66.7281849495
66.7281849496
66.7281849508
66.7281850357
66.7281905988
66.7285341446
66.7501991196
67.1514779337
394.005358349
2724.99301812
12242.0735415
38802.6262788
85293.7987943
141448.913473
180175.590378
192856.664386
193952.162074
193146.555302
192235.823714
191364.279347
190540.274717
189743.075408
188972.266424
188245.682574
187535.120582
186848.564559
186205.317361
185567.664552
184954.177342
184392.089715
183832.514548
183316.183527
182799.966674
182320.075895
181848.181266
181369.630656
180925.280087
180466.16226
180038.848628
179620.383578
179201.383039
178835.149255
178474.666857
178117.657359
177771.240338
177410.845926
177034.333683
66.7281849495
66.7281849495
66.7281849495
66.7281849495
66.7281849495
66.7281849495
66.7281849495
66.7281849495
66.7281849495
66.7281849495
66.7281849495
66.7281849495
66.7281849495
66.7281849495
66.7281849495
66.7281849495
66.7281849495
66.7281849495
66.7281849495
66.7281849495
66.7281849495
66.7281849495
66.7281849495
66.7281849495
66.7281849496
66.7281849524
66.7281851406
66.7281973929
66.7289456151
66.7747661203
67.4723043939
675.032796697
3510.9562459
16032.8644007
45489.5901157
94627.5357612
147642.408808
179656.198789
188118.706306
188185.79601
187211.68839
186220.108628
185289.176433
184400.362836
183546.863927
182726.213301
181961.349624
181209.857859
180484.20356
179794.123498
179116.752742
178469.223502
177868.360884
177271.251521
176722.218831
176172.796021
175664.465564
175145.581451
174661.549437
174166.377365
173713.496777
173262.82561
172804.085868
172401.380499
172012.529791
171630.37152
171228.264656
170863.277027
170496.211312
170056.361647
66.7281849495
66.7281849495
66.7281849495
66.7281849495
66.7281849495
66.7281849495
66.7281849495
66.7281849495
66.7281849495
66.7281849495
66.7281849495
66.7281849495
66.7281849495
66.7281849495
66.7281849495
66.7281849495
66.7281849495
66.7281849495
66.7281849495
66.7281849495
66.7281849495
66.7281849495
66.7281849495
66.7281849495
66.7281849496
66.7281849564
66.7281853927
66.7282129731
66.7298674588
66.8205985397
87.3996232085
930.613382928
4588.52043034
20464.6525201
53493.761134
104281.373069
153021.020478
177971.745968
182852.195151
182249.253026
181170.134424
180114.548615
179109.39854
178160.894926
177258.095032
176391.993178
175585.761306
174798.590641
174033.481085
173290.485211
172597.707848
171914.408198
171280.82052
170651.302953
170044.663691
169484.412112
168921.315676
168403.747774
167901.22409
167391.847998
166911.40798
166416.975381
165969.346162
165537.594125
165125.851231
164706.217242
164315.714862