/*--------------------------------*- C++ -*----------------------------------*\
| =========                 |                                                 |
| \\      /  F ield         | foam-extend: Open Source CFD                    |
|  \\    /   O peration     | Version:     4.1                                |
|   \\  /    A nd           | Web:         http://www.foam-extend.org         |
|    \\/     M anipulation  |                                                 |
\*---------------------------------------------------------------------------*/
FoamFile
{
    version     2.0;
    format      ascii;
    class       volScalarField;
    location    "0.0002";
    object      rho;
}
// * * * * * * * * * * * * * * * * * * * * * * * * * * * * * * * * * * * * * //

dimensions      [1 -3 0 0 0 0 0];

internalField   nonuniform List<scalar> 
8400
(
0.00101999409791
0.00101999409791
0.00101999409791
0.00101999409791
0.00101999409791
0.00101999409791
0.00101999409792
0.00101999409792
0.00101999409792
0.00101999409792
0.00101999409792
0.00101999409792
0.00101999409792
0.00101999409792
0.00101999409792
0.00101999409792
0.00101999409792
0.00101999409792
0.00101999409792
0.00101999409792
0.00101999409792
0.00101999409793
0.00101999409793
0.00101999409793
0.00101999409793
0.00101999409793
0.00101999409793
0.00101999409793
0.00101999409793
0.00101999409812
0.00101999411121
0.00101999497481
0.00102005239393
0.00102164257944
0.00104292522938
0.00119765319165
0.00177470047486
0.0032033107995
0.00586022707329
0.00953241177536
0.0128900981719
0.0147222715745
0.0152841779366
0.0153695222844
0.0153477418498
0.0153070910055
0.0152636174005
0.015219856717
0.0151766258463
0.0151344707589
0.0150928034097
0.0150502880809
0.015006697794
0.014963051596
0.0149206383049
0.0148798060494
0.0148396713069
0.0147998363884
0.0147607270463
0.0147232109403
0.0146877392299
0.0146539742956
0.0146222643417
0.0145934742732
0.0145682327069
0.0145471701962
0.0145309045246
0.0145198126979
0.0145140905401
0.0145609533799
0.00101999409779
0.00101999409779
0.00101999409779
0.00101999409779
0.00101999409779
0.00101999409779
0.00101999409779
0.00101999409779
0.00101999409779
0.00101999409779
0.00101999409779
0.00101999409779
0.00101999409779
0.00101999409779
0.00101999409779
0.00101999409779
0.00101999409779
0.00101999409779
0.00101999409779
0.00101999409779
0.00101999409779
0.00101999409779
0.00101999409779
0.00101999409779
0.00101999409779
0.00101999409779
0.00101999409779
0.00101999409779
0.00101999409781
0.00101999409928
0.00101999419964
0.00102000056479
0.00102041733038
0.00102675659816
0.00108860587236
0.00139996621453
0.00232371534705
0.00430094948565
0.00755813909725
0.0113234955386
0.0140494271267
0.0151864390435
0.0154648503681
0.0155094551024
0.015509211952
0.0155002892253
0.0154879928928
0.0154732950263
0.0154567946764
0.0154385499482
0.0154181865174
0.0153953197371
0.015370226704
0.0153438735171
0.0153173703102
0.0152908159412
0.0152633106338
0.0152348735033
0.0152064410008
0.0151787281139
0.0151521293902
0.0151266264528
0.0151025737972
0.015080628991
0.0150608516859
0.0150440769951
0.0150313256876
0.0150226650713
0.0150180091944
0.0150503356918
0.00101999409775
0.00101999409775
0.00101999409775
0.00101999409775
0.00101999409775
0.00101999409775
0.00101999409775
0.00101999409775
0.00101999409775
0.00101999409775
0.00101999409775
0.00101999409775
0.00101999409775
0.00101999409775
0.00101999409775
0.00101999409775
0.00101999409775
0.00101999409775
0.00101999409775
0.00101999409775
0.00101999409775
0.00101999409775
0.00101999409775
0.00101999409775
0.00101999409775
0.00101999409775
0.00101999409775
0.00101999409775
0.00101999409784
0.00101999410428
0.00101999454985
0.00102002508596
0.00102120657115
0.00103706710221
0.00116143246368
0.00166083268926
0.00295619367314
0.00545807321024
0.00909263321635
0.012627059451
0.0146836344386
0.0153585224369
0.0154951293571
0.0155140880848
0.0155111394817
0.0155027983129
0.0154919302128
0.0154787140847
0.0154632211641
0.0154455885148
0.0154254709693
0.0154026784282
0.0153777684234
0.0153517651443
0.0153256360501
0.0152992277737
0.0152712891563
0.0152418715121
0.015212565776
0.0151847997892
0.0151590182279
0.0151347095426
0.0151116130039
0.0150900051848
0.0150703145279
0.0150536201198
0.0150408366592
0.0150320076213
0.0150268979731
0.0150518769358
0.00101999409773
0.00101999409773
0.00101999409773
0.00101999409773
0.00101999409773
0.00101999409773
0.00101999409773
0.00101999409773
0.00101999409773
0.00101999409773
0.00101999409773
0.00101999409773
0.00101999409773
0.00101999409773
0.00101999409773
0.00101999409773
0.00101999409773
0.00101999409773
0.00101999409773
0.00101999409773
0.00101999409773
0.00101999409773
0.00101999409773
0.00101999409773
0.00101999409773
0.00101999409773
0.00101999409773
0.00101999409773
0.00101999409806
0.00101999412088
0.00101999560107
0.00102009503257
0.00102243219661
0.00105229154496
0.00124845755024
0.00192367092563
0.00351436498324
0.00639187665394
0.0101756653141
0.0133926487358
0.0149806735399
0.0154198508392
0.0154958760265
0.0155021116921
0.0154955438322
0.0154845613346
0.0154705723641
0.0154542033263
0.0154357659502
0.0154152728418
0.0153925814884
0.0153677679698
0.0153414551877
0.0153147356663
0.0152879386301
0.0152601311731
0.0152307785123
0.0152004349858
0.0151704018854
0.0151420264545
0.0151161223916
0.0150923365126
0.0150695104019
0.0150477555117
0.0150281855227
0.0150117011819
0.0149987631793
0.0149893044185
0.0149831770657
0.0150041668048
0.00101999409772
0.00101999409772
0.00101999409772
0.00101999409772
0.00101999409772
0.00101999409772
0.00101999409772
0.00101999409772
0.00101999409772
0.00101999409772
0.00101999409772
0.00101999409772
0.00101999409772
0.00101999409772
0.00101999409772
0.00101999409772
0.00101999409772
0.00101999409772
0.00101999409772
0.00101999409772
0.00101999409772
0.00101999409772
0.00101999409772
0.00101999409772
0.00101999409772
0.00101999409772
0.00101999409772
0.00101999409773
0.00101999409848
0.0010199941511
0.00101999760587
0.00102023210029
0.00102451324291
0.00107113462372
0.00133200598206
0.00214971137926
0.00397073939931
0.00709730239476
0.0109102378747
0.0138439345118
0.0151289981671
0.0154440995965
0.0154915550951
0.0154903886668
0.0154795428011
0.0154650183789
0.01544806005
0.0154289471384
0.0154077186959
0.015384465918
0.0153594223183
0.0153328773806
0.0153055030138
0.0152777342118
0.0152491203346
0.0152194476505
0.015188887901
0.015157794021
0.0151273341741
0.0150984988778
0.0150713042127
0.0150458984013
0.0150224904489
0.015001121093
0.0149821363017
0.0149659672263
0.0149529115616
0.0149431001757
0.0149366277724
0.0149560488474
0.00101999409771
0.00101999409771
0.00101999409771
0.00101999409771
0.00101999409771
0.00101999409771
0.00101999409771
0.00101999409771
0.00101999409771
0.00101999409771
0.00101999409771
0.00101999409771
0.00101999409771
0.00101999409771
0.00101999409771
0.00101999409771
0.00101999409771
0.00101999409771
0.00101999409771
0.00101999409771
0.00101999409771
0.00101999409771
0.00101999409771
0.00101999409771
0.00101999409771
0.00101999409771
0.00101999409771
0.00101999409773
0.00101999409908
0.00101999419256
0.00102000023233
0.00102040236418
0.00102667088421
0.00108856808384
0.00140198057165
0.00233402273345
0.00433305655952
0.00762783718946
0.011421721217
0.0141272693749
0.0152104658718
0.0154536929486
0.0154850914815
0.0154785475749
0.0154637782978
0.0154459820975
0.0154263651849
0.0154050508566
0.0153818222697
0.0153566440721
0.0153297292674
0.0153016691259
0.0152727917787
0.0152426975392
0.0152115507978
0.0151798985113
0.0151478228919
0.0151157441134
0.0150842448443
0.0150537758623
0.0150254500363
0.0149999942864
0.0149768250292
0.014955191007
0.014935378027
0.014918487376
0.0149056626442
0.0148969803173
0.0148910964088
0.0149095623776
0.00101999409771
0.00101999409771
0.00101999409771
0.00101999409771
0.00101999409771
0.00101999409771
0.00101999409771
0.00101999409771
0.00101999409771
0.00101999409771
0.00101999409771
0.00101999409771
0.00101999409771
0.00101999409771
0.00101999409771
0.00101999409771
0.00101999409771
0.00101999409771
0.00101999409771
0.00101999409771
0.00101999409771
0.00101999409771
0.00101999409771
0.00101999409771
0.00101999409771
0.00101999409771
0.00101999409771
0.00101999409774
0.00101999409976
0.00101999423878
0.00102000307466
0.00102057783418
0.00102875178853
0.00110401964658
0.00146084122265
0.00248453464235
0.00462073379406
0.00803219341095
0.0117895007821
0.0143169710169
0.0152615737792
0.015458055822
0.0154775933018
0.0154663494896
0.0154482581009
0.0154274495055
0.01540502895
0.0153811722949
0.0153556205572
0.0153284249147
0.015299738024
0.0152694623914
0.01523789589
0.0152054151001
0.0151721751109
0.0151384531356
0.0151049540895
0.0150721626736
0.0150399527338
0.0150087725707
0.0149794108105
0.0149522599297
0.0149274424811
0.0149053861507
0.0148863968774
0.0148701973782
0.0148570380203
0.0148472955015
0.0148409734708
0.0148596436528
0.0010199940977
0.0010199940977
0.0010199940977
0.0010199940977
0.0010199940977
0.0010199940977
0.0010199940977
0.0010199940977
0.0010199940977
0.0010199940977
0.0010199940977
0.0010199940977
0.0010199940977
0.0010199940977
0.0010199940977
0.0010199940977
0.0010199940977
0.0010199940977
0.0010199940977
0.0010199940977
0.0010199940977
0.0010199940977
0.0010199940977
0.0010199940977
0.0010199940977
0.0010199940977
0.00101999409771
0.00101999409775
0.00101999410048
0.00101999428512
0.00102000582336
0.00102073626038
0.00103064213019
0.00111761758674
0.00151115984854
0.00260963919107
0.00485426061144
0.00834998397612
0.0120666357999
0.0144537259178
0.0152970734599
0.0154590409398
0.0154682526012
0.0154522326638
0.0154310326461
0.0154074340665
0.0153820882052
0.0153552528068
0.0153271334778
0.0152976758646
0.0152665028491
0.0152339089426
0.0152003720318
0.015165886916
0.0151307181793
0.0150951821224
0.0150593972544
0.0150242125395
0.0149905526189
0.014958720361
0.0149288131004
0.0149011124204
0.0148757611416
0.0148526045482
0.0148321815193
0.0148151855077
0.0148017574666
0.0147917956053
0.0147851513648
0.0148027899483
0.0010199940977
0.0010199940977
0.0010199940977
0.0010199940977
0.0010199940977
0.0010199940977
0.0010199940977
0.0010199940977
0.0010199940977
0.0010199940977
0.0010199940977
0.0010199940977
0.0010199940977
0.0010199940977
0.0010199940977
0.0010199940977
0.0010199940977
0.0010199940977
0.0010199940977
0.0010199940977
0.0010199940977
0.0010199940977
0.0010199940977
0.0010199940977
0.0010199940977
0.0010199940977
0.0010199940977
0.00101999409775
0.00101999410119
0.00101999432937
0.00102000835487
0.00102087129115
0.00103234235371
0.0011297058348
0.00155506528686
0.00271662440355
0.00505157737173
0.00861263112657
0.0122869610138
0.0145558387043
0.0153190508304
0.0154554890805
0.0154583127537
0.0154386582376
0.0154135948596
0.0153861469861
0.0153570895072
0.015326888879
0.0152955839712
0.0152626934516
0.0152284645609
0.0151935172188
0.0151578889995
0.0151216145474
0.015084619046
0.0150467169908
0.0150087074823
0.014971760964
0.0149364973651
0.0149035550851
0.0148730449315
0.0148443567037
0.0148176116665
0.0147934181986
0.014772188135
0.0147543146046
0.0147400098784
0.0147292304074
0.0147218578984
0.0147382601656
0.0010199940977
0.0010199940977
0.0010199940977
0.0010199940977
0.0010199940977
0.0010199940977
0.0010199940977
0.0010199940977
0.0010199940977
0.0010199940977
0.0010199940977
0.0010199940977
0.0010199940977
0.0010199940977
0.0010199940977
0.0010199940977
0.0010199940977
0.0010199940977
0.0010199940977
0.0010199940977
0.0010199940977
0.0010199940977
0.0010199940977
0.0010199940977
0.0010199940977
0.0010199940977
0.0010199940977
0.00101999409776
0.00101999410189
0.00101999437371
0.00102001178813
0.00102098881041
0.00103396717645
0.00114109444596
0.00159523072609
0.00281320503884
0.00522574733285
0.00883734645873
0.0124705480064
0.014639157629
0.0153364970996
0.0154512149916
0.0154463593785
0.0154220067777
0.0153928407254
0.0153613087957
0.0153284414248
0.0152945920873
0.015259305883
0.0152227003354
0.0151854872643
0.0151480469838
0.0151104104095
0.0150719713389
0.0150319470705
0.0149910813759
0.0149510761856
0.014913176698
0.0148774527656
0.0148430674547
0.0148100885677
0.0147793452125
0.01475140388
0.0147265267249
0.0147051239716
0.0146872652027
0.0146723628803
0.0146605125846
0.0146521633182
0.0146670587478
0.0010199940977
0.0010199940977
0.0010199940977
0.0010199940977
0.0010199940977
0.0010199940977
0.0010199940977
0.0010199940977
0.0010199940977
0.0010199940977
0.0010199940977
0.0010199940977
0.0010199940977
0.0010199940977
0.0010199940977
0.0010199940977
0.0010199940977
0.0010199940977
0.0010199940977
0.0010199940977
0.0010199940977
0.0010199940977
0.0010199940977
0.0010199940977
0.0010199940977
0.0010199940977
0.0010199940977
0.00101999409777
0.00101999410268
0.00101999443373
0.00102001678637
0.00102110283789
0.00103558728141
0.00115224340945
0.00163374058982
0.00290416340056
0.00538808923899
0.00904358205215
0.0126347785769
0.0147111912352
0.0153486510671
0.0154431634904
0.0154311224561
0.0154017793316
0.0153678963868
0.0153320315658
0.0152952187417
0.0152572590673
0.0152180184003
0.0151779391609
0.0151379051391
0.015098351024
0.0150582575654
0.0150165309617
0.0149731002582
0.0149294410089
0.0148874968724
0.0148478694696
0.0148103194827
0.0147742295863
0.0147393831875
0.0147069640814
0.0146780801697
0.0146525890021
0.0146303345898
0.0146113286633
0.0145954203899
0.0145826733737
0.0145733182728
0.0145863617979
0.0010199940977
0.0010199940977
0.0010199940977
0.0010199940977
0.0010199940977
0.0010199940977
0.0010199940977
0.0010199940977
0.0010199940977
0.0010199940977
0.0010199940977
0.0010199940977
0.0010199940977
0.0010199940977
0.0010199940977
0.0010199940977
0.0010199940977
0.0010199940977
0.0010199940977
0.0010199940977
0.0010199940977
0.0010199940977
0.0010199940977
0.0010199940977
0.0010199940977
0.0010199940977
0.0010199940977
0.00101999409779
0.00101999410378
0.00101999451806
0.00102002315743
0.00102122416537
0.00103730470389
0.00116379452749
0.00167267221501
0.00299488037286
0.00554765046696
0.00924236962768
0.0127881290412
0.0147742128297
0.0153568692705
0.0154326839073
0.0154131021561
0.0153786157358
0.0153400124388
0.0152995744259
0.0152581885506
0.015215612523
0.0151719228996
0.0151280006157
0.0150845175253
0.0150412774679
0.0149977619238
0.0149532135083
0.0149074705158
0.0148615121782
0.014816561941
0.0147739653044
0.014734533379
0.0146974135027
0.014661302479
0.0146268436807
0.014595602721
0.0145683180718
0.0145450803605
0.0145255520073
0.0145095605175
0.014496839828
0.0144868877653
0.0144979014994
0.0010199940977
0.0010199940977
0.0010199940977
0.0010199940977
0.0010199940977
0.0010199940977
0.0010199940977
0.0010199940977
0.0010199940977
0.0010199940977
0.0010199940977
0.0010199940977
0.0010199940977
0.0010199940977
0.0010199940977
0.0010199940977
0.0010199940977
0.0010199940977
0.0010199940977
0.0010199940977
0.0010199940977
0.0010199940977
0.0010199940977
0.0010199940977
0.0010199940977
0.0010199940977
0.0010199940977
0.0010199940978
0.0010199941053
0.00101999462764
0.00102003064362
0.0010213626242
0.00103924720645
0.00117648093512
0.00171426070622
0.00309023592472
0.0057123365311
0.00944255317351
0.012937659095
0.0148320589936
0.015361805012
0.0154197606011
0.0153918467525
0.015350966977
0.0153069310758
0.0152614841723
0.0152149545398
0.0151675702175
0.0151198570088
0.0150721081371
0.015024295393
0.0149767418964
0.0149297823414
0.0148827320021
0.0148345060191
0.0147856154691
0.0147382016875
0.0146935825575
0.0146514339992
0.0146114032292
0.0145734735191
0.0145378938873
0.0145056918292
0.0144774655657
0.0144527418643
0.0144313939924
0.0144136223337
0.0143994512129
0.0143889004486
0.0143993222149
0.00101999409769
0.00101999409769
0.00101999409769
0.00101999409769
0.00101999409769
0.00101999409769
0.00101999409769
0.00101999409769
0.00101999409769
0.00101999409769
0.0010199940977
0.0010199940977
0.0010199940977
0.0010199940977
0.0010199940977
0.0010199940977
0.0010199940977
0.0010199940977
0.0010199940977
0.0010199940977
0.0010199940977
0.0010199940977
0.0010199940977
0.0010199940977
0.0010199940977
0.0010199940977
0.0010199940977
0.00101999409783
0.00101999410744
0.0010199947713
0.00102004032984
0.0010215297458
0.00104149659031
0.0011907356655
0.00176015819278
0.00319337267304
0.0058884014065
0.00965324252138
0.0130893033234
0.0148866898636
0.0153629197606
0.0154026312368
0.0153655632949
0.0153179762867
0.0152684708139
0.0152174267411
0.0151652418507
0.0151129090072
0.0150607533314
0.0150084908782
0.0149564123131
0.0149052333966
0.0148548311369
0.0148041449331
0.0147527957742
0.0147018218172
0.0146523928691
0.0146049408111
0.0145597137239
0.0145171048347
0.0144772175361
0.0144401168571
0.014406547912
0.0143768314609
0.0143503933029
0.0143270685546
0.0143077827115
0.0142931555068
0.0142825543376
0.0142924940137
0.00101999409769
0.00101999409769
0.00101999409769
0.00101999409769
0.00101999409769
0.00101999409769
0.00101999409769
0.00101999409769
0.00101999409769
0.00101999409769
0.00101999409769
0.00101999409769
0.00101999409769
0.00101999409769
0.00101999409769
0.00101999409769
0.00101999409769
0.00101999409769
0.00101999409769
0.00101999409769
0.00101999409769
0.00101999409769
0.00101999409769
0.00101999409769
0.00101999409769
0.00101999409769
0.0010199940977
0.00101999409787
0.00101999411047
0.0010199949659
0.00102005253425
0.00102173463164
0.00104421039723
0.00120740405474
0.00181219259421
0.00330870893205
0.00608169924354
0.00987742100352
0.0132454854948
0.0149386841694
0.0153590941982
0.0153801853233
0.0153344376387
0.0152800854781
0.0152239854501
0.0151667714023
0.0151092436989
0.0150518604248
0.0149944617772
0.0149375256351
0.0148815649923
0.0148262501603
0.014771362935
0.0147170005266
0.0146630251963
0.0146093120745
0.014556748781
0.01450671098
0.0144594487289
0.014414347726
0.0143716858147
0.0143323860771
0.0142973698002
0.0142667121108
0.0142394080363
0.0142152507684
0.0141947530328
0.014178224789
0.0141657717199
0.0141729617354
0.00101999409769
0.00101999409769
0.00101999409769
0.00101999409769
0.00101999409769
0.00101999409769
0.00101999409769
0.00101999409769
0.00101999409769
0.00101999409769
0.00101999409769
0.00101999409769
0.00101999409769
0.00101999409769
0.00101999409769
0.00101999409769
0.00101999409769
0.00101999409769
0.00101999409769
0.00101999409769
0.00101999409769
0.00101999409769
0.00101999409769
0.00101999409769
0.00101999409769
0.00101999409769
0.0010199940977
0.00101999409793
0.0010199941145
0.00101999521979
0.00102006905919
0.00102200741726
0.00104763612761
0.00122739735603
0.00187248075888
0.00343907873073
0.00629667343793
0.0101213421676
0.0134069765468
0.0149867912465
0.0153507481538
0.0153532557641
0.0152980011035
0.0152357181638
0.0151722408263
0.0151087518378
0.0150457695483
0.0149829021943
0.0149204853096
0.014859033659
0.0147982714758
0.014738532915
0.0146800338067
0.0146219801306
0.0145642133979
0.0145075962095
0.0144527980019
0.0143998934431
0.0143491742471
0.0143013617649
0.0142568933278
0.0142158006752
0.0141786476667
0.0141459395825
0.014117639564
0.0140932752668
0.0140720037737
0.014053994844
0.0140399370966
0.0140444639252
0.00101999409769
0.00101999409769
0.00101999409769
0.00101999409769
0.00101999409769
0.00101999409769
0.00101999409769
0.00101999409769
0.00101999409769
0.00101999409769
0.00101999409769
0.00101999409769
0.00101999409769
0.00101999409769
0.00101999409769
0.00101999409769
0.00101999409769
0.00101999409769
0.00101999409769
0.00101999409769
0.00101999409769
0.00101999409769
0.00101999409769
0.00101999409769
0.00101999409769
0.00101999409769
0.0010199940977
0.00101999409801
0.00101999412014
0.00101999556914
0.00102009172293
0.00102239446595
0.00105223610363
0.00125225411473
0.00194323391328
0.00358760641675
0.00653765289543
0.010384621245
0.0135745558237
0.0150316064831
0.0153361020726
0.0153198928755
0.0152557163186
0.0151857541929
0.0151151838856
0.0150450656973
0.0149751906468
0.014905995136
0.0148380900896
0.0147712174123
0.01470568176
0.0146417948169
0.0145789128376
0.014517061481
0.0144565239093
0.0143969758848
0.0143390352122
0.0142834740795
0.0142301396079
0.0141793456268
0.0141322659683
0.0140895383184
0.014050903094
0.014016508905
0.013986435251
0.013960110588
0.0139372757876
0.0139181620814
0.0139030557327
0.0139054938812
0.00101999409769
0.00101999409769
0.00101999409769
0.00101999409769
0.00101999409769
0.00101999409769
0.00101999409769
0.00101999409769
0.00101999409769
0.00101999409769
0.00101999409769
0.00101999409769
0.00101999409769
0.00101999409769
0.00101999409769
0.00101999409769
0.00101999409769
0.00101999409769
0.00101999409769
0.00101999409769
0.00101999409769
0.00101999409769
0.00101999409769
0.00101999409769
0.00101999409769
0.00101999409769
0.0010199940977
0.00101999409814
0.00101999412835
0.00101999607245
0.00102012401122
0.00102299833172
0.00105824043415
0.00128262538954
0.00202908298561
0.00375821367494
0.0068080780694
0.0106721782493
0.0137468379161
0.0150694365764
0.0153140840041
0.0152796872842
0.0152058024472
0.0151278684657
0.0150502251822
0.0149729396653
0.0148964012698
0.0148212156321
0.0147474694525
0.014675268547
0.0146045062215
0.014535608576
0.0144687570092
0.0144031913699
0.0143390148023
0.0142765015685
0.0142153851271
0.0141562003475
0.0141001329839
0.0140477183077
0.0139987474883
0.0139535308872
0.0139128878042
0.0138769441581
0.0138450341432
0.0138169221633
0.0137927104268
0.0137723766964
0.0137560147316
0.0137560056352
0.00101999409769
0.00101999409769
0.00101999409769
0.00101999409769
0.00101999409769
0.00101999409769
0.00101999409769
0.00101999409769
0.00101999409769
0.00101999409769
0.00101999409769
0.00101999409769
0.00101999409769
0.00101999409769
0.00101999409769
0.00101999409769
0.00101999409769
0.00101999409769
0.00101999409769
0.00101999409769
0.00101999409769
0.00101999409769
0.00101999409769
0.00101999409769
0.00101999409769
0.00101999409769
0.0010199940977
0.00101999409832
0.00101999414045
0.00101999684296
0.00102017635023
0.00102386644672
0.00106624361597
0.00131968175033
0.00213016783034
0.00395715236949
0.00711372830556
0.010982383721
0.0139185157955
0.0151000174063
0.0152864942512
0.0152327842637
0.0151482256595
0.0150621454942
0.0149768083795
0.0148923683502
0.014809282761
0.0147277263328
0.0146479125311
0.0145697533665
0.0144936739526
0.0144200941428
0.0143487671927
0.0142794600539
0.0142115920271
0.0141453021579
0.0140811532703
0.0140193029403
0.0139605042886
0.0139057247807
0.0138550593589
0.0138080124797
0.0137646850609
0.0137260034242
0.0136923131535
0.0136629015351
0.0136376483346
0.0136163656425
0.0135986675599
0.0135959162412
0.00101999409769
0.00101999409769
0.00101999409769
0.00101999409769
0.00101999409769
0.00101999409769
0.00101999409769
0.00101999409769
0.00101999409769
0.00101999409769
0.00101999409769
0.00101999409769
0.00101999409769
0.00101999409769
0.00101999409769
0.00101999409769
0.00101999409769
0.00101999409769
0.00101999409769
0.00101999409769
0.00101999409769
0.00101999409769
0.00101999409769
0.00101999409769
0.00101999409769
0.00101999409769
0.00101999409771
0.0010199940986
0.00101999415937
0.00101999804807
0.0010202546808
0.00102507668898
0.00107703805307
0.00136434280234
0.00224797408359
0.00418924211801
0.00745865021179
0.0113165701334
0.0140905098711
0.0151204872733
0.0152491252421
0.0151783215148
0.0150835381743
0.0149879579347
0.0148942064785
0.0148025113811
0.0147125862068
0.0146245141821
0.014538547929
0.014454918472
0.0143734875034
0.0142946194554
0.0142186127711
0.0141451553264
0.014073994899
0.0140044952357
0.0139369263168
0.0138722109777
0.0138106913553
0.0137529820284
0.0136998766575
0.0136512429121
0.0136063885473
0.0135655203042
0.0135292040165
0.0134978373005
0.0134712972926
0.013448758789
0.0134300103949
0.0134253038841
0.00101999409769
0.00101999409769
0.00101999409769
0.00101999409769
0.00101999409769
0.00101999409769
0.00101999409769
0.00101999409769
0.00101999409769
0.00101999409769
0.00101999409769
0.00101999409769
0.00101999409769
0.00101999409769
0.00101999409769
0.00101999409769
0.00101999409769
0.00101999409769
0.00101999409769
0.00101999409769
0.00101999409769
0.00101999409769
0.00101999409769
0.00101999409769
0.00101999409769
0.00101999409769
0.00101999409771
0.00101999409907
0.00101999419081
0.00102000002803
0.00102038168151
0.00102680897537
0.00109102437986
0.00141861762393
0.00238773056933
0.00445971713164
0.00784685478102
0.0116715111648
0.0142573530514
0.0151304000606
0.0152027107907
0.015114158692
0.0150090060159
0.0149045960495
0.0148026863398
0.0147031905801
0.0146058658297
0.0145108150165
0.0144183864285
0.0143289406523
0.0142426099447
0.0141592609161
0.014078707242
0.0140006272206
0.0139252983615
0.0138526898876
0.0137820790969
0.0137141985522
0.0136501007759
0.0135899903653
0.0135346239255
0.0134839854559
0.0134370294197
0.0133940596052
0.013355838303
0.0133224230858
0.013294047739
0.0132704919163
0.0132507275955
0.0132432537037
0.00101999409769
0.00101999409769
0.00101999409769
0.00101999409769
0.00101999409769
0.00101999409769
0.00101999409769
0.00101999409769
0.00101999409769
0.00101999409769
0.00101999409769
0.00101999409769
0.00101999409769
0.00101999409769
0.00101999409769
0.00101999409769
0.00101999409769
0.00101999409769
0.00101999409769
0.00101999409769
0.00101999409769
0.00101999409769
0.00101999409769
0.00101999409769
0.00101999409769
0.00101999409769
0.00101999409772
0.00101999409985
0.00101999424272
0.00102000323515
0.00102057731333
0.00102924431362
0.00110896056355
0.001485039339
0.00255509891153
0.00477508215981
0.008280664847
0.0120458633718
0.0144141106148
0.0151252004453
0.015144636664
0.0150396815269
0.0149240038535
0.0148106804787
0.0147006704454
0.0145934263468
0.0144885176382
0.0143864107669
0.0142876514632
0.014192364692
0.0141008130473
0.014012710805
0.0139276223388
0.0138454737122
0.0137662128057
0.013689976582
0.0136165190709
0.013546179402
0.0134794558669
0.0134163590431
0.0133577970303
0.0133046828858
0.0132565350596
0.0132123164845
0.0131722436669
0.0131369984971
0.0131068935706
0.0130816117117
0.0130601265314
0.0130495410383
0.00101999409769
0.00101999409769
0.00101999409769
0.00101999409769
0.00101999409769
0.00101999409769
0.00101999409769
0.00101999409769
0.00101999409769
0.00101999409769
0.00101999409769
0.00101999409769
0.00101999409769
0.00101999409769
0.00101999409769
0.00101999409769
0.00101999409769
0.00101999409769
0.00101999409769
0.00101999409769
0.00101999409769
0.00101999409769
0.00101999409769
0.00101999409769
0.00101999409769
0.00101999409769
0.00101999409774
0.00101999410119
0.0010199943296
0.0010200083913
0.00102086804967
0.00103260888611
0.00113203567542
0.00156717692456
0.00275571052036
0.00514275458848
0.0087634140245
0.0124317444458
0.0145528787039
0.0151025757402
0.015073881176
0.0149540760319
0.0148286650779
0.0147063961283
0.0145880485113
0.0144729810364
0.0143606432245
0.0142515324768
0.0141462269502
0.0140451028203
0.0139480959549
0.0138549267541
0.013765378505
0.0136791993955
0.0135959405928
0.0135160434671
0.0134398552797
0.0133666906602
0.013297029271
0.0132317964852
0.0131711275995
0.0131157038403
0.013065554483
0.0130195264924
0.0129776079503
0.0129404787916
0.0129085506569
0.0128814701723
0.0128581340135
0.0128440957878
0.00101999409769
0.00101999409769
0.00101999409769
0.00101999409769
0.00101999409769
0.00101999409769
0.00101999409769
0.00101999409769
0.00101999409769
0.00101999409769
0.00101999409769
0.00101999409769
0.00101999409769
0.00101999409769
0.00101999409769
0.00101999409769
0.00101999409769
0.00101999409769
0.00101999409769
0.00101999409769
0.00101999409769
0.00101999409769
0.00101999409769
0.00101999409769
0.00101999409769
0.00101999409769
0.00101999409778
0.00101999410347
0.00101999447159
0.00102001791904
0.00102123549238
0.00103710604251
0.00116196101411
0.00166940614356
0.00299705305961
0.00556856479976
0.00929268288146
0.0128200333406
0.0146698093695
0.0150641291632
0.014992111759
0.0148577065279
0.0147218482743
0.0145904272261
0.0144634881532
0.0143402436286
0.0142206713807
0.0141050108539
0.0139935817799
0.0138864970989
0.0137839233803
0.0136857560771
0.0135914889003
0.0135010663189
0.0134143494259
0.0133312241206
0.013251823342
0.0131758145942
0.0131038063508
0.0130365727034
0.0129737525666
0.0129157895872
0.0128630822515
0.0128150801557
0.0127717692264
0.0127331741607
0.0126993157801
0.0126701481839
0.0126451073565
0.0126282542459
0.00101999409769
0.00101999409769
0.00101999409769
0.00101999409769
0.00101999409769
0.00101999409769
0.00101999409769
0.00101999409769
0.00101999409769
0.00101999409769
0.00101999409769
0.00101999409769
0.00101999409769
0.00101999409769
0.00101999409769
0.00101999409769
0.00101999409769
0.00101999409769
0.00101999409769
0.00101999409769
0.00101999409769
0.00101999409769
0.00101999409769
0.00101999409769
0.00101999409769
0.00101999409769
0.00101999409784
0.00101999410813
0.00101999480433
0.00102004159146
0.00102171217187
0.00104333300722
0.0012015741125
0.00179712943709
0.00328712214442
0.00606013084095
0.00986699632247
0.0132021257759
0.0147570712331
0.0150068010413
0.014898288257
0.0147494353189
0.0146027867079
0.014461789525
0.0143259718686
0.0141951134792
0.0140687237092
0.0139465459076
0.0138289788376
0.0137161666668
0.0136080676735
0.0135046410338
0.0134058612759
0.013311517583
0.0132212482405
0.0131348955562
0.0130525657657
0.0129741093365
0.0128998464418
0.0128301174971
0.0127646271422
0.0127042049894
0.0126494335628
0.0125995841604
0.0125545504835
0.0125147181768
0.0124796034405
0.0124483683514
0.0124211949194
0.0124010664536
0.00101999409769
0.00101999409769
0.00101999409769
0.00101999409769
0.00101999409769
0.00101999409769
0.00101999409769
0.00101999409769
0.00101999409769
0.00101999409769
0.00101999409769
0.00101999409769
0.00101999409769
0.00101999409769
0.00101999409769
0.00101999409769
0.00101999409769
0.00101999409769
0.00101999409769
0.00101999409769
0.00101999409769
0.00101999409769
0.00101999409769
0.00101999409769
0.00101999409769
0.00101999409769
0.00101999409801
0.00101999411964
0.00101999553413