/*--------------------------------*- C++ -*----------------------------------*\
| =========                 |                                                 |
| \\      /  F ield         | foam-extend: Open Source CFD                    |
|  \\    /   O peration     | Version:     4.1                                |
|   \\  /    A nd           | Web:         http://www.foam-extend.org         |
|    \\/     M anipulation  |                                                 |
\*---------------------------------------------------------------------------*/
FoamFile
{
    version     2.0;
    format      ascii;
    class       volScalarField;
    location    "0.0002";
    object      T;
}
// * * * * * * * * * * * * * * * * * * * * * * * * * * * * * * * * * * * * * //

dimensions      [0 0 0 1 0 0 0];

internalField   nonuniform List<scalar> 
8400
(
226.836296595
226.836296595
226.836296595
226.836296595
226.836296595
226.836296595
226.836296595
226.836296595
226.836296595
226.836296596
226.836296596
226.836296596
226.836296596
226.836296596
226.836296596
226.836296596
226.836296596
226.836296596
226.836296596
226.836296596
226.836296596
226.836296596
226.836296596
226.836296596
226.836296596
226.836296596
226.836296596
226.836296596
226.836296596
226.836296599
226.8362968
226.836310225
226.837205785
226.863410621
415.882672008
3108.31818068
6882.94885258
12516.2887093
14838.373344
16446.4583531
17397.7962075
17832.103931
17972.8802409
18016.82514
18037.7010268
18054.6378164
18070.1465154
18086.9735011
18104.4902221
18122.8912364
18141.2147071
18161.201101
18181.7430295
18203.016716
18225.0386133
18246.8284078
18270.0557733
18293.4158901
18316.7558218
18339.7504656
18361.092463
18382.5385976
18402.7350506
18421.2795629
18437.988174
18452.5472339
18464.7360176
18474.2873493
18481.1026014
18495.6486537
226.836296593
226.836296593
226.836296593
226.836296593
226.836296593
226.836296593
226.836296593
226.836296593
226.836296593
226.836296593
226.836296593
226.836296593
226.836296593
226.836296593
226.836296593
226.836296593
226.836296593
226.836296593
226.836296593
226.836296593
226.836296593
226.836296593
226.836296593
226.836296593
226.836296593
226.836296593
226.836296593
226.836296593
226.836296594
226.836296617
226.836298188
226.836398346
226.843003334
226.946370937
1619.75118044
5415.17859765
10755.5826552
13764.164345
15746.0730107
17062.5489851
17741.765752
18000.1485763
18075.4490887
18103.906697
18123.4551976
18142.6826128
18161.4127572
18181.8458587
18202.9910472
18224.9316676
18247.6336638
18270.8885582
18294.7494174
18318.9840438
18343.8022286
18368.0120851
18393.4416874
18418.5323554
18443.2050075
18467.1958629
18490.3723243
18512.3573724
18532.7900083
18550.2135305
18566.5996295
18580.7255769
18592.426584
18601.6273265
18608.0677453
18619.0642682
226.836296592
226.836296592
226.836296592
226.836296593
226.836296593
226.836296593
226.836296593
226.836296593
226.836296593
226.836296593
226.836296593
226.836296593
226.836296593
226.836296593
226.836296593
226.836296593
226.836296593
226.836296593
226.836296593
226.836296593
226.836296593
226.836296593
226.836296593
226.836296593
226.836296593
226.836296593
226.836296593
226.836296593
226.836296594
226.836296693
226.836303479
226.836768836
226.856354044
317.390719176
2776.80360749
6358.32789693
12181.8272672
14644.2055217
16366.8612901
17423.3169986
17904.6508721
18064.4648822
18108.765166
18131.4798583
18149.9660546
18168.6440121
18187.2346732
18207.4851174
18228.4872123
18250.2959399
18272.7033498
18295.7567197
18319.1731989
18342.9806521
18367.3765101
18391.008424
18415.4891329
18439.4701869
18462.7298533
18485.3616461
18507.2793967
18527.9785186
18547.1571743
18563.3456188
18578.3983843
18591.1755111
18601.8478044
18610.1625523
18615.9525714
18625.0495129
226.836296592
226.836296592
226.836296592
226.836296592
226.836296592
226.836296592
226.836296592
226.836296592
226.836296592
226.836296592
226.836296592
226.836296592
226.836296592
226.836296592
226.836296592
226.836296592
226.836296592
226.836296592
226.836296592
226.836296592
226.836296592
226.836296592
226.836296592
226.836296592
226.836296592
226.836296592
226.836296592
226.836296592
226.836296597
226.836296953
226.836320155
226.837867828
226.875127416
600.480930733
4269.56378574
8517.9733807
12960.0377836
15189.2390308
16724.643862
17597.0904046
17962.4797835
18070.937943
18105.1751471
18126.9565275
18145.0875145
18164.257033
18184.0487657
18204.4362405
18225.5495046
18247.3796134
18269.7623316
18292.7557341
18316.1108819
18339.9013311
18363.0221671
18387.381169
18411.3148053
18434.6909433
18457.2765273
18479.1443791
18500.2957442
18519.0664885
18537.5247716
18553.9546922
18568.2532579
18580.4135876
18590.3884297
18598.1168622
18603.3936845
18611.4816451
226.836296592
226.836296592
226.836296592
226.836296592
226.836296592
226.836296592
226.836296592
226.836296592
226.836296592
226.836296592
226.836296592
226.836296592
226.836296592
226.836296592
226.836296592
226.836296592
226.836296592
226.836296592
226.836296592
226.836296592
226.836296592
226.836296592
226.836296592
226.836296592
226.836296592
226.836296592
226.836296592
226.836296592
226.836296604
226.836297414
226.836350947
226.839998907
226.909130337
1072.6531337
5081.82141224
10108.3719186
13451.3814234
15531.721658
16925.204551
17674.7900603
17969.8863192
18052.205916
18081.6438074
18102.4287833
18122.1893594
18142.0419521
18162.3780836
18183.4196192
18205.0013505
18227.2147795
18249.957571
18273.1578296
18296.997972
18319.9556829
18344.1399081
18368.2941176
18392.1356595
18415.3608969
18437.861756
18458.3719747
18479.0144864
18498.2938922
18516.0844324
18532.2161835
18546.3179448
18558.2445114
18567.9902449
18575.4077953
18580.440955
18588.0973659
226.836296592
226.836296592
226.836296592
226.836296592
226.836296592
226.836296592
226.836296592
226.836296592
226.836296592
226.836296592
226.836296592
226.836296592
226.836296592
226.836296592
226.836296592
226.836296592
226.836296592
226.836296592
226.836296592
226.836296592
226.836296592
226.836296592
226.836296592
226.836296592
226.836296592
226.836296592
226.836296592
226.836296592
226.836296613
226.836298063
226.836392236
226.842709824
226.94437355
1598.92964651
5414.10173122
10757.1856557
13762.2372305
15736.0081796
17035.8619763
17701.0369612
17948.1585406
18017.7552971
18045.0974486
18065.8815176
18086.0488255
18106.5376983
18127.6044822
18149.2328885
18171.497743
18194.3281876
18217.6383498
18241.3914197
18264.3952159
18288.6175124
18312.8958297
18336.990239
18360.8480425
18384.1548251
18405.5177395
18426.9774527
18447.338709
18466.6616118
18484.5068605
18500.4892402
18514.3628555
18526.0721879
18535.6894226
18541.9597066
18547.1184006
18555.8599603
226.836296592
226.836296592
226.836296592
226.836296592
226.836296592
226.836296592
226.836296592
226.836296592
226.836296592
226.836296592
226.836296592
226.836296592
226.836296592
226.836296592
226.836296592
226.836296592
226.836296592
226.836296592
226.836296592
226.836296592
226.836296592
226.836296592
226.836296592
226.836296592
226.836296592
226.836296592
226.836296592
226.836296592
226.836296624
226.836298795
226.836437748
226.845550878
226.978581268
2041.7227183
5633.02480071
11162.4335042
13974.047893
15872.0567173
17080.9214219
17695.1252261
17909.4859925
17970.6539678
17996.8439142
18018.0424673
18038.8906766
18060.117372
18081.9192568
18104.3128336
18127.236221
18150.6324385
18173.5186819
18197.6976536
18221.9992332
18246.5677121
18271.0174056
18295.3228687
18319.2173314
18341.605408
18364.1542283
18385.7330736
18406.2610176
18425.3861153
18443.0522269
18459.0094822
18471.8035037
18483.6381492
18493.2311852
18500.582193
18505.625662
18513.0661857
226.836296592
226.836296592
226.836296592
226.836296592
226.836296592
226.836296592
226.836296592
226.836296592
226.836296592
226.836296592
226.836296592
226.836296592
226.836296592
226.836296592
226.836296592
226.836296592
226.836296592
226.836296592
226.836296592
226.836296592
226.836296592
226.836296592
226.836296592
226.836296592
226.836296592
226.836296592
226.836296592
226.836296592
226.836296635
226.836299541
226.836482633
226.848199836
227.010001414
2311.96748501
5799.51033277
11432.9595574
14116.3228568
15941.3888106
17106.215627
17665.1873052
17857.3612216
17912.7556533
17938.5160059
17960.5956741
17982.3588816
18004.4129991
18026.9021576
18049.8899857
18073.5432028
18096.6151875
18120.9921172
18145.5632878
18170.4792483
18195.3647512
18220.1753652
18243.624327
18267.6080095
18290.9572995
18313.5437881
18335.4191938
18356.0241205
18375.3909348
18392.0219383
18407.8633758
18421.6201381
18433.3791843
18442.9763969
18450.408272
18455.490412
18462.8222878
226.836296592
226.836296592
226.836296592
226.836296592
226.836296592
226.836296592
226.836296592
226.836296592
226.836296592
226.836296592
226.836296592
226.836296592
226.836296592
226.836296592
226.836296592
226.836296592
226.836296592
226.836296592
226.836296592
226.836296592
226.836296592
226.836296592
226.836296592
226.836296592
226.836296592
226.836296592
226.836296592
226.836296593
226.836296646
226.836300264
226.836524766
226.850548588
243.118723483
2462.25536716
5944.68861281
11618.4736485
14221.3735856
15988.7646567
17091.6653325
17619.3690369
17796.1296493
17847.0767704
17872.7627912
17895.147848
17917.443546
17940.1280339
17963.3980351
17987.1668827
18010.4410652
18034.9030574
18059.8038961
18084.9481188
18110.3202158
18135.7097732
18159.9953364
18184.695219
18208.851636
18232.3085232
18255.1189936
18277.0236921
18296.7513521
18316.2088076
18333.9217009
18349.7451209
18363.6089575
18375.4168788
18385.0336487
18392.3620688
18397.3305842
18404.3526244
226.836296592
226.836296592
226.836296592
226.836296592
226.836296592
226.836296592
226.836296592
226.836296592
226.836296592
226.836296592
226.836296592
226.836296592
226.836296592
226.836296592
226.836296592
226.836296592
226.836296592
226.836296592
226.836296592
226.836296592
226.836296592
226.836296592
226.836296592
226.836296592
226.836296592
226.836296592
226.836296592
226.836296593
226.836296658
226.836300964
226.836568174
226.852567183
263.192794474
2572.48978854
6061.82414992
11777.8660465
14298.051733
16018.3410435
17059.476438
17559.1176392
17723.1792267
17771.4057204
17797.7297809
17821.1062671
17844.3496958
17867.9066845
17892.0219974
17915.6082082
17940.4284162
17965.5115906
17990.9313668
18016.6673979
18042.6621243
18067.6467639
18093.1217029
18117.9759819
18142.3914458
18166.1639876
18188.385168
18210.4907593
18231.3623079
18250.6601917
18268.3160844
18284.2329398
18298.292721
18309.0586018
18318.7276523
18325.9807426
18330.8430571
18337.5972567
226.836296592
226.836296592
226.836296592
226.836296592
226.836296592
226.836296592
226.836296592
226.836296592
226.836296592
226.836296592
226.836296592
226.836296592
226.836296592
226.836296592
226.836296592
226.836296592
226.836296592
226.836296592
226.836296592
226.836296592
226.836296592
226.836296592
226.836296592
226.836296592
226.836296592
226.836296592
226.836296592
226.836296593
226.83629667
226.836301753
226.836635949
226.854474919
286.683589858
2666.79385529
6171.14880535
11890.7005277
14350.7083301
16025.5990973
17021.5968955
17486.1448704
17641.2682223
17688.9048387
17715.9389242
17740.1621952
17764.2431437
17788.6794717
17812.5949649
17837.7974112
17863.2987699
17889.1023223
17915.2516704
17940.7614249
17967.3103837
17993.7002584
18019.4232314
18044.57645
18068.1450405
18092.2703008
18115.6904936
18138.095629
18159.0478718
18178.3802401
18195.0239185
18211.0045509
18225.1360145
18237.1119803
18246.7334598
18253.9307994
18258.717368
18265.0995677
226.836296592
226.836296592
226.836296592
226.836296592
226.836296592
226.836296592
226.836296592
226.836296592
226.836296592
226.836296592
226.836296592
226.836296592
226.836296592
226.836296592
226.836296592
226.836296592
226.836296592
226.836296592
226.836296592
226.836296592
226.836296592
226.836296592
226.836296592
226.836296592
226.836296592
226.836296592
226.836296592
226.836296593
226.836296685
226.83630292
226.836728785
226.856478654
310.420256182
2752.74918266
6281.000296
12003.3166025
14397.8610177
16013.2830518
16968.1506959
17412.303065
17553.3124701
17598.9660477
17626.9581437
17652.2263863
17677.3830354
17702.7691084
17727.5873395
17753.6036328
17779.7667244
17806.3071913
17832.1354598
17859.2268665
17886.2646546
17913.1563782
17939.4373306
17963.9706026
17988.7983071
18013.0822485
18036.6854486
18058.2194647
18079.3235045
18098.8186616
18116.4652486
18132.3266947
18146.4272311
18158.479758
18168.323757
18174.5650531
18179.4301339
18185.5236868
226.836296592
226.836296592
226.836296592
226.836296592
226.836296592
226.836296592
226.836296592
226.836296592
226.836296592
226.836296592
226.836296592
226.836296592
226.836296592
226.836296592
226.836296592
226.836296592
226.836296592
226.836296592
226.836296592
226.836296592
226.836296592
226.836296592
226.836296592
226.836296592
226.836296592
226.836296592
226.836296592
226.836296593
226.836296706
226.836304522
226.83684472
226.858707621
337.329976202
2843.84373672
6401.42301507
12103.2830099
14428.4975862
16000.5515671
16913.0105375
17325.6531717
17458.560652
17503.1424594
17531.6405992
17558.0606461
17584.2223099
17609.7436024
17636.4818078
17663.281192
17690.3881082
17716.7308307
17744.1462381
17771.6792874
17799.3292956
17825.7301261
17852.5121554
17878.4744186
17903.6732166
17927.2210703
17950.9652152
17973.5938174
17994.8940284
18014.4191893
18032.2512039
18047.2240147
18061.3138609
18073.2328388
18082.8805233
18090.1436329
18094.9593569
18101.0065069
226.836296592
226.836296592
226.836296592
226.836296592
226.836296592
226.836296592
226.836296592
226.836296592
226.836296592
226.836296592
226.836296592
226.836296592
226.836296592
226.836296592
226.836296592
226.836296592
226.836296592
226.836296592
226.836296592
226.836296592
226.836296592
226.836296592
226.836296592
226.836296592
226.836296592
226.836296592
226.836296592
226.836296594
226.836296737
226.83630671
226.836991578
226.861390426
370.057635023
2949.51491621
6558.85210501
12198.3928972
14462.4788151
15975.4416955
16849.3700514
17235.6970229
17358.8781095
17401.5935119
17430.6863428
17458.215016
17484.8626191
17512.2334192
17539.8369156
17567.5543943
17594.5594782
17622.6401595
17650.7124691
17678.9059766
17706.1173473
17733.8889895
17761.0922935
17787.5186938
17812.2078401
17837.0161537
17860.9420054
17883.6248483
17903.8944325
17923.5451597
17941.5071752
17957.6722789
17971.7905626
17983.6127696
17993.1319064
17999.2221854
18004.125646
18010.1348962
226.836296592
226.836296592
226.836296592
226.836296592
226.836296592
226.836296592
226.836296592
226.836296592
226.836296592
226.836296592
226.836296592
226.836296592
226.836296592
226.836296592
226.836296592
226.836296592
226.836296592
226.836296592
226.836296592
226.836296592
226.836296592
226.836296592
226.836296592
226.836296592
226.836296592
226.836296592
226.836296592
226.836296594
226.836296783
226.83630971
226.83718783
226.864641213
413.198023661
3095.55601303
6741.51354219
12296.7769799
14494.7920278
15949.2631279
16779.1210221
17139.5913454
17252.9949988
17294.7518819
17324.8754999
17352.6960143
17381.1725123
17409.616543
17438.0736179
17465.8273228
17494.6250035
17523.4494999
17551.4274612
17580.2072232
17608.7861855
17637.083696
17663.8381689
17690.5828929
17716.6372109
17741.7348653
17764.7738055
17787.6271437
17808.8833317
17828.6473667
17845.5734351
17861.839511
17876.0797305
17887.992107
17897.4969623
17904.6012
17909.2900939
17914.8114286
226.836296592
226.836296592
226.836296592
226.836296592
226.836296592
226.836296592
226.836296592
226.836296592
226.836296592
226.836296592
226.836296592
226.836296592
226.836296592
226.836296592
226.836296592
226.836296592
226.836296592
226.836296592
226.836296592
226.836296592
226.836296592
226.836296592
226.836296592
226.836296592
226.836296592
226.836296592
226.836296592
226.836296595
226.836296844
226.836313613
226.837442009
226.868907108
467.472945722
3353.40086906
7000.35788971
12396.2322163
14520.2817412
15920.2862453
16706.8094578
17038.9100814
17142.4615967
17183.2309764
17213.544343
17243.1557048
17272.7595353
17302.2817589
17330.9641322
17360.4901052
17390.0388919
17418.8255617
17448.3152856
17477.7137345
17506.0737866
17534.7520164
17562.8172516
17590.0661081
17615.5115064
17640.8097657
17664.9678539
17687.9488487
17708.3577619
17728.1099354
17746.0606293
17762.2075207
17776.5660926
17787.5360095
17797.1209693
17804.174846
17808.7479453
17813.8221347
226.836296592
226.836296592
226.836296592
226.836296592
226.836296592
226.836296592
226.836296592
226.836296592
226.836296592
226.836296592
226.836296592
226.836296592
226.836296592
226.836296592
226.836296592
226.836296592
226.836296592
226.836296592
226.836296592
226.836296592
226.836296592
226.836296592
226.836296592
226.836296592
226.836296592
226.836296592
226.836296592
226.836296596
226.836296931
226.836319012
226.837787654
226.874694522
547.224281002
3914.60373873
7452.89528395
12514.0461756
14563.9145723
15888.5703029
16621.2515519
16929.6709043
17026.2218645
17067.0552939
17098.6159584
17129.4802653
17160.1489106
17189.9815878
17220.4058718
17250.8955852
17280.4065074
17310.7400617
17340.9689699
17370.1501426
17399.7793636
17428.9749467
17456.5573401
17484.2837597
17510.903286
17535.5924923
17559.898203
17582.8132548
17604.2715147
17623.1181189
17641.2578139
17657.5182716
17671.7075009
17683.6413356
17693.1376835
17700.1976715
17704.7217927
17709.502291
226.836296592
226.836296592
226.836296592
226.836296592
226.836296592
226.836296592
226.836296592
226.836296592
226.836296592
226.836296592
226.836296592
226.836296592
226.836296592
226.836296592
226.836296592
226.836296592
226.836296592
226.836296592
226.836296592
226.836296592
226.836296592
226.836296592
226.836296592
226.836296592
226.836296592
226.836296592
226.836296592
226.836296598
226.836297058
226.836326761
226.838282347
226.883443141
660.344563221
4418.40840266
8142.06816668
12625.98932
14593.8882145
15857.8546208
16535.8883353
16818.6675204
16907.3263338
16946.9441958
16980.0243673
17011.9695052
17043.0181152
17074.548721
17105.208096
17136.522077
17167.7527331
17197.9902248
17228.8421258
17259.3868407
17288.7817135
17318.424594
17347.3935297
17374.4452543
17401.4489316
17427.1374428
17451.6387823
17473.7121061
17495.4016132
17515.2523473
17533.4173653
17548.6026969
17562.7390471
17574.6097631
17584.0329192
17590.9782789
17595.4253676
17599.91802
226.836296592
226.836296592
226.836296592
226.836296592
226.836296592
226.836296592
226.836296592
226.836296592
226.836296592
226.836296592
226.836296592
226.836296592
226.836296592
226.836296592
226.836296592
226.836296592
226.836296592
226.836296592
226.836296592
226.836296592
226.836296592
226.836296592
226.836296592
226.836296592
226.836296592
226.836296592
226.836296592
226.836296601
226.836297242
226.836338246
226.839053825
226.897220208
827.284043722
4772.31975524
8860.71636676
12745.2827368
14624.9215541
15823.0927394
16453.8518958
16703.8616416
16783.6618691
16823.3123996
16857.5112222
16890.0597399
16923.0474004
16955.0200481
16987.3690289
17019.5200533
17050.7772832
17082.5072794
17113.1755719
17144.3007106
17175.0137656
17204.2448219
17233.6242097
17261.9801292
17288.1938533
17314.1450166
17338.7027102
17361.9890842
17382.7148659
17402.7402258
17420.7402293
17436.7879089
17449.7102013
17461.5693104
17470.9810089
17477.9035978
17482.314181
17486.4360919
226.836296592
226.836296592
226.836296592
226.836296592
226.836296592
226.836296592
226.836296592
226.836296592
226.836296592
226.836296592
226.836296592
226.836296592
226.836296592
226.836296592
226.836296592
226.836296592
226.836296592
226.836296592
226.836296592
226.836296592
226.836296592
226.836296592
226.836296592
226.836296592
226.836296592
226.836296592
226.836296592
226.836296605
226.836297525
226.836356416
226.840239284
226.9162383
1075.4037727
5026.91241116
9466.24956416
12871.0678151
14662.2441412
15783.308882
16363.6976741
16585.1874574
16657.3019873
16696.8142287
16731.1726294
16765.5344165
16798.891422
16832.671139
16866.1967868
16898.5253007
16931.3724393
16963.0598241
16995.174303
17025.9689541
17057.0535274
17087.5815048
17116.4082012
17145.0811899
17172.5248804
17197.7083363
17222.3530048
17245.5922066
17267.3813314
17286.375554
17304.5114456
17320.5199008
17334.3059144
17344.8038023
17354.2135161
17361.1187337
17365.4976734
17369.3656993
226.836296592
226.836296592
226.836296592
226.836296592
226.836296592
226.836296592
226.836296592
226.836296592
226.836296592
226.836296592
226.836296592
226.836296592
226.836296592
226.836296592
226.836296592
226.836296592
226.836296592
226.836296592
226.836296592
226.836296592
226.836296592
226.836296592
226.836296592
226.836296592
226.836296592
226.836296592
226.836296592
226.836296612
226.836297997
226.83638621
226.842168338
226.943772888
1438.27852705
5256.15630793
9945.64773048
13001.7847836
14707.3256124
15740.6069459
16264.4549721
16461.8761361
16527.4118754
16567.1121861
16602.7392101
16638.3737165
16672.9128897
16707.7126029
16741.3939585
16775.2363218
16808.0118977
16841.2976915
16873.2075367
16905.4554173
16936.2423056
16967.1411347
16997.0156087
17025.0702577
17052.7537613
17079.0038001
17102.7617024
17126.0927406
17147.8142327
17166.8466703
17184.8463116
17200.7453115
17214.4895641
17225.9317113
17234.1580435
17241.0525603
17245.4264971
17248.9640885
226.836296592
226.836296592
226.836296592
226.836296592
226.836296592
226.836296592
226.836296592
226.836296592
226.836296592
226.836296592
226.836296592
226.836296592
226.836296592
226.836296592
226.836296592
226.836296592
226.836296592
226.836296592
226.836296592
226.836296592
226.836296592
226.836296592
226.836296592
226.836296592
226.836296592
226.836296592
226.836296592
226.836296624
226.83629878
226.836435022
226.845210187
226.982934289
1907.16453976
5470.99114209
10352.6722733
13130.7838705
14737.9910171
15691.2462457
16164.333334
16334.719406
16394.8030033
16434.3159726
16471.8635832
16508.0171798
16544.4374604
16579.5245469
16614.077474
16648.7497977
16682.204805
16716.0222891
16749.4157893
16781.3717483
16813.4120437
16843.6911071
16873.990346
16902.1448631
16930.0213748
16956.4226053
16980.3657671
17003.535153
17025.0761642
17044.9507708
17062.0388319
17077.9557438
17091.5579185
17102.9393164
17112.067934
17117.7576604
17121.9595003
17125.0588402
226.836296592
226.836296592
226.836296592
226.836296592
226.836296592
226.836296592
226.836296592
226.836296592
226.836296592
226.836296592
226.836296592
226.836296592
226.836296592
226.836296592
226.836296592
226.836296592
226.836296592
226.836296592
226.836296592
226.836296592
226.836296592
226.836296592
226.836296592
226.836296592
226.836296592
226.836296592
226.836296592
226.836296644
226.836300109
226.836515381
226.849888272
228.08579319
2311.22270988
5699.47356355
10732.552951
13276.3431398
14762.5887801
15642.5452896
16055.2158458
16203.5552881
16259.4251762
16300.1730973
16338.2031309
16376.1060627
16412.7838824
16448.8220105
16484.9243569
16519.802531
16554.7601432
16588.4498084
16622.3846266
16654.6737385
16687.2009796
16717.8122037
16748.0914191
16777.3781562
16804.47015
16830.9316863
16855.9531313
16878.1381711
16899.7290701
16919.4979888
16936.4512249
16952.2234828
16965.7411267
16976.9542391
16985.9353111
16991.5174407
16995.5991379
16998.2029743
226.836296592
226.836296592
226.836296592
226.836296592
226.836296592
226.836296592
226.836296592
226.836296592
226.836296592
226.836296592
226.836296592
226.836296592
226.836296592
226.836296592
226.836296592
226.836296592
226.836296592
226.836296592
226.836296592
226.836296592
226.836296592
226.836296592
226.836296592
226.836296592
226.836296592
226.836296592
226.836296593
226.836296679
226.836302294
226.836645987
226.85614983
278.316910366
2590.20257896
5938.09037363
11098.1314173
13403.1965373
14793.5612493
15586.8732686
15944.3690164
16068.79845
16121.584781
16162.6924594
16202.753225
16241.2610064
16279.0239118
16316.7653419
16353.0262558
16389.3120707
16424.2622353
16458.5422991
16492.8233329
16525.5689755
16558.279986
16590.1662481
16619.9761855
16649.3846192
16676.4543098
16702.9503336
16727.9495096
16750.1428793
16771.5558736
16791.2660535
16807.9523856
16823.561426
16836.9748559
16848.1233543
16857.0230991
16862.4205166
16866.3598414
16868.6087277
226.836296592
226.836296592
226.836296592
226.836296592
226.836296592
226.836296592
226.836296592
226.836296592
226.836296592
226.836296592
226.836296592
226.836296592
226.836296592
226.836296592
226.836296592
226.836296592
226.836296592
226.836296592
226.836296592
226.836296592
226.836296592
226.836296592
226.836296592
226.836296592
226.836296592
226.836296592
226.836296594
226.836296745
226.836306868
226.836986947
226.863998478
358.639775903
2855.26186216
6226.36364385
11432.6248162
13535.4610123
14815.2574835
15517.1810163
15827.7920044
15932.1233602
15982.127378
16024.059328
16064.6086274
16104.3959879
16143.9621789
16182.0110514
16219.1856074
16256.2735851
16291.7874444
16327.3997782
16361.229871
16395.094997
16427.2961497
16459.3390054
16489.2356424
16518.7769179
16545.9630992
16572.5587073
16597.5581382
16619.7106045
16641.0087267
16660.3580491
16676.8923803
16692.3643185
16705.6326668
16716.7317459
16724.4154548
16730.6707898
16734.5063418
16736.4771184
226.836296592
226.836296592
226.836296592
226.836296592
226.836296592
226.836296592
226.836296592
226.836296592
226.836296592
226.836296592
226.836296592
226.836296592
226.836296592
226.836296592
226.836296592
226.836296592
226.836296592
226.836296592
226.836296592
226.836296592
226.836296592
226.836296592
226.836296592
226.836296592
226.836296592
226.836296592
226.836296596
226.836296912
226.836317881
226.837681211
226.875585568
489.655878975
3311.67137734
6612.66551243
11748.3044634
13655.7874232
14829.4475849
15445.4517663
15703.2296396
15791.7790128
15839.8332737
15882.8734498
15924.7601676
15966.3354573
16006.3441635
16045.3573946
16084.0617781
16121.255936
16157.4282101
16193.5438122
16227.8122366
16262.0515628
16294.3577269
16326.5153614
16356.5179225
16386.1072697
16413.2864571
16439.769427
16463.7313367
16486.7002882
16507.9409183
16526.1277691
16543.4803486
16558.7479949
16571.9031144
16581.7697191
16590.2642491
16596.4137602
16600.2276462
16601.8783083
226.836296592
226.836296592
226.836296592
226.836296592
226.836296592
226.836296592
226.836296592
226.836296592
226.836296592
226.836296592
226.836296592
226.836296592
226.836296592
226.836296592
226.836296592
226.836296592
226.836296592
226.836296592
226.836296592
226.836296592
226.836296592
226.836296592
226.836296592
226.836296592
226.836296592
226.836296592
226.836296602
226.836297266
226.836339027
226.83896231
226.896876091
741.167850716
4507.38721565
7318.46921912
12045.2651057
13784.542503
14822.0359757
15360.5367951
15572.5369676
15648.3370228
15696.1877127
15740.4198555
15784.2578836
15826.3104228
15867.3646298
15907.106269
15946.5566273
15984.3706645
16021.0799217
16057.6645795
16092.4534456
16127.0123539
16159.4653192
16191.7537185
16221.7512511
16251.3344819
16278.4399805
16304.9707738
16328.7969549
16351.6248323
16372.6378309
16390.7186913
16407.7217798
16422.7933888
16434.5931949
16445.3223798
16453.7348438
16459.7261243
16463.4378775
16464.7872439
226.836296592
226.836296592
226.836296592
226.836296592
226.836296592
226.836296592
226.836296592
226.836296592
226.836296592
226.836296592
226.836296592
226.836296592
226.836296592
226.836296592
226.836296592
226.836296592
226.836296592
226.836296592
226.836296592
226.836296592
226.836296592
226.836296592
226.836296592
226.836296592
226.836296592
226.836296592
226.836296613
226.836297999
226.836383592
226.841781351
226.941758666
1260.10961151
5077.88116695
8823.63858329
12325.6818656
13887.4513583
14814.9543678
15268.1014839
15435.9289636
15502.6831737
15551.1811135
15596.9675788
15641.4232145
15684.6541675
15726.5395755
15767.3839038
15807.6929429
15846.1295757
15883.4716317
15920.4237977
15955.4469771
15989.3198725
16022.7992838
16054.1874298
16085.0854422
16113.7683021
16141.7498279
16167.9783464
16191.6399597
16214.3659105
16234.2067929
16253.0207633
16269.7457478
16283.409463
16296.1905962
16306.6765874
16314.899218
16320.8757349
16323.5445778
16324.4938185
226.836296592
226.836296592
226.836296592
226.836296592
226.836296592
226.836296592
226.836296592
226.836296592
226.836296592
226.836296592
226.836296592
226.836296592
226.836296592
226.836296592
226.836296592
226.836296592
226.836296592
226.836296592
226.836296592
226.836296592
226.836296592
226.836296592
226.836296592
226.836296592
226.836296592
226.836296592
226.836296639
226.836299692
226.836486109
226.847902139
227.021691538
2083.882143
5498.46964517
9858.52477671
12583.358148
13993.6402299
14782.7925002
15159.7261786
15295.5670238
15355.5542516
15404.562075
15451.5463496
15497.4176691
15541.6833107
15584.5531022
15626.2911407
15667.384215
15706.4486762
15744.3787458
15781.5986768
15816.8837517
15850.8943049
15884.4319143
15915.8101979
15946.6538325
15975.1215405
16002.9972579
16028.0594565
16052.4274564
16073.9749838
16094.5897769
16113.0767479
16128.5882565
16143.262173
16155.8431567
16166.255635
16173.183631
16179.0241714
16182.5353951
16182.9944457
226.836296592
226.836296592
226.836296592
226.836296592
226.836296592
226.836296592
226.836296592
226.836296592
226.836296592
226.836296592
226.836296592
226.836296592
226.836296592
226.836296592
226.836296592
226.836296592
226.836296592
226.836296592
226.836296592
226.836296592
226.836296592
226.836296592
226.836296592
226.836296592
226.836296592
226.836296593
226.836296702
226.836303574
226.836715783
226.859321138
292.009588696
2619.4791724
5885.6513812
10582.037744
12829.3857623
14066.3420081
14738.9778241
15042.6207626
15150.0415418
15206.7963449
15257.1325797
15305.4397159
15352.0792427
15397.4208358
15441.401578
15483.8373317
15525.6476238
15565.3816501
15603.6804488
15640.6103431
15676.9246301
15710.9814129
15744.6550971
15775.9045437
15805.6355848
15834.7989142
15861.3764307
15887.3074631
15911.4361908
15932.7344761
15953.0090561