/*--------------------------------*- C++ -*----------------------------------*\
| =========                 |                                                 |
| \\      /  F ield         | foam-extend: Open Source CFD                    |
|  \\    /   O peration     | Version:     4.1                                |
|   \\  /    A nd           | Web:         http://www.foam-extend.org         |
|    \\/     M anipulation  |                                                 |
\*---------------------------------------------------------------------------*/
FoamFile
{
    version     2.0;
    format      ascii;
    class       volVectorField;
    location    "0.0002";
    object      U;
}
// * * * * * * * * * * * * * * * * * * * * * * * * * * * * * * * * * * * * * //

dimensions      [0 1 -1 0 0 0 0];

internalField   nonuniform List<vector> 
8400
(
(16999.9999979 3.04472419362e-09 1.08488869178e-11)
(16999.9999979 3.09236055561e-09 1.07599130909e-11)
(16999.9999979 3.13909659404e-09 1.06683102252e-11)
(16999.9999979 3.18494573541e-09 1.05797767383e-11)
(16999.9999979 3.22992191593e-09 1.04985468084e-11)
(16999.9999979 3.27403909499e-09 1.04170719039e-11)
(16999.999998 3.31731058643e-09 1.03379201142e-11)
(16999.999998 3.35975019261e-09 1.02611449797e-11)
(16999.999998 3.40137042096e-09 1.01866566283e-11)
(16999.999998 3.44218428531e-09 1.01125750028e-11)
(16999.999998 3.4822052734e-09 1.00414920802e-11)
(16999.999998 3.52144618808e-09 9.97242744704e-12)
(16999.999998 3.55991965362e-09 9.90525791182e-12)
(16999.999998 3.59763872947e-09 9.83517395757e-12)
(16999.999998 3.63461625412e-09 9.77440321623e-12)
(16999.999998 3.67086451855e-09 9.71219172457e-12)
(16999.9999981 3.70639551951e-09 9.65107955761e-12)
(16999.9999981 3.74122159726e-09 9.59515249157e-12)
(16999.9999981 3.77535484323e-09 9.53764974356e-12)
(16999.9999981 3.80880663977e-09 9.48090577307e-12)
(16999.9999981 3.84158871946e-09 9.42188335095e-12)
(16999.9999981 3.87371262944e-09 9.36164420339e-12)
(16999.9999981 3.90518939972e-09 9.3128996555e-12)
(16999.9999981 3.93602996211e-09 9.26326876535e-12)
(16999.9999981 3.96624631391e-09 9.2114896162e-12)
(16999.9999981 3.99584903959e-09 9.16019648486e-12)
(16999.9999981 4.02485274268e-09 9.02969286725e-12)
(16999.9999981 4.05352474182e-09 3.17016179616e-12)
(16999.9999981 4.09902713363e-09 -3.79709419982e-10)
(16999.9999981 5.29722998598e-09 -2.51568066949e-08)
(16999.9999941 7.27297986132e-08 -1.43645303916e-06)
(16999.9997047 4.53421865882e-06 -9.0839355366e-05)
(16999.9813827 2.90804446325e-05 -0.00111242809344)
(16998.1174351 0.00553753384399 -0.0107561193431)
(16948.3205168 -0.913735437758 -0.0870643335897)
(16382.6622046 -7.43206190363 -0.14033912602)
(13882.1467512 -28.5028765205 -0.019947513778)
(9808.31534181 -44.7388054895 0.0505800686046)
(6006.74793468 -46.0468900166 0.040054802314)
(3305.0610671 -28.005287901 0.02507870384)
(1769.46627156 5.76253015263 0.0140840654789)
(1101.00744582 47.149038256 0.00697835168761)
(889.497299685 88.8470102743 0.00346225285717)
(829.226856272 127.923234018 0.00224925265191)
(801.246941545 164.112785853 0.00187350847881)
(777.670763685 197.743067114 0.00167399066732)
(753.493702808 229.133265508 0.00149395489499)
(728.054144173 258.594369069 0.00130913981406)
(701.45117856 286.355041183 0.00112090572605)
(673.659667792 312.614003988 0.000928011130593)
(644.585467324 337.537488836 0.000723111451998)
(614.504331025 361.291975284 0.00050159728452)
(583.93295446 383.988890504 0.00026298438708)
(552.858188711 405.720084577 5.82745070969e-06)
(521.237147382 426.549698418 -0.0002728314285)
(488.83636194 446.518746014 -0.000576940687686)
(455.808922703 465.646323089 -0.000911598088102)
(422.554502579 483.924140903 -0.00128133130175)
(389.091245254 501.325434352 -0.00168800141318)
(355.512998764 517.798493185 -0.00213496248707)
(321.618723962 533.269669157 -0.00263096083384)
(287.522967162 547.668331641 -0.00318583916151)
(253.600506992 560.89405158 -0.00381079637568)
(219.86154848 572.852239567 -0.00452187104227)
(186.361209259 583.420157273 -0.00534438972943)
(153.147214042 592.491174251 -0.00631325715363)
(120.215931908 599.965366069 -0.00746897222463)
(87.538089468 605.75053744 -0.0088643589075)
(55.2232837736 609.770743321 -0.0105206685694)
(39.3053925238 611.921154615 -0.0119989324374)
(16999.9999989 1.72800280794e-09 -1.01932883667e-12)
(16999.9999989 1.75567197828e-09 -9.88813532881e-13)
(16999.9999989 1.78283776291e-09 -9.59226265149e-13)
(16999.9999989 1.80950753582e-09 -9.31151063825e-13)
(16999.9999989 1.83568837469e-09 -9.02311558503e-13)
(16999.9999989 1.86138771195e-09 -8.7537825393e-13)
(16999.9999989 1.88661250637e-09 -8.49440282321e-13)
(16999.9999989 1.91136960045e-09 -8.24349359618e-13)
(16999.9999989 1.93566543391e-09 -8.00174335603e-13)
(16999.9999989 1.95950681193e-09 -7.76555954068e-13)
(16999.9999989 1.98290067934e-09 -7.54057451557e-13)
(16999.9999989 2.00585382348e-09 -7.31979355052e-13)
(16999.9999989 2.02837239698e-09 -7.09489460705e-13)
(16999.9999989 2.05046298884e-09 -6.88632598037e-13)
(16999.9999989 2.07213264302e-09 -6.68808820697e-13)
(16999.9999989 2.09338741623e-09 -6.49372823424e-13)
(16999.9999989 2.11423374876e-09 -6.31338319983e-13)
(16999.9999989 2.13467801222e-09 -6.13057833577e-13)
(16999.9999989 2.15472647397e-09 -5.96524927843e-13)
(16999.999999 2.17438535976e-09 -5.8082863182e-13)
(16999.999999 2.1936608609e-09 -5.6448235597e-13)
(16999.999999 2.21255938595e-09 -5.47674627431e-13)
(16999.999999 2.23108709344e-09 -5.32741602089e-13)
(16999.999999 2.24924975692e-09 -5.18155261658e-13)
(16999.999999 2.26705352201e-09 -5.03323341999e-13)
(16999.999999 2.28450503538e-09 -4.90114414353e-13)
(16999.999999 2.30164832535e-09 -5.35262782772e-13)
(16999.999999 2.32119808793e-09 -4.44340406646e-12)
(16999.999999 2.53287103941e-09 -2.66015436399e-10)
(16999.9999985 1.60730270108e-08 -1.70299106835e-08)
(16999.9999678 9.16738348892e-07 -1.08616301509e-06)
(16999.9977701 6.30058733337e-05 -4.06121583937e-05)
(16999.8654965 0.0035023795829 -0.000498003960294)
(16985.2890255 0.384063550368 -0.00802188284262)
(16805.2207506 3.42972176557 -0.0368813852778)
(15437.3903918 27.424644641 -0.0365151484786)
(11975.0689236 85.7761412051 -0.00186272169578)
(7850.48675096 161.378810515 0.0103763539099)
(4490.66919533 230.035252854 0.00846171463649)
(2342.98933091 284.790256602 0.00575707402926)
(1258.38377951 327.027348258 0.00350571124252)
(854.549160148 360.14675376 0.00195985521595)
(737.932121008 388.148672124 0.00119887387741)
(694.263904636 414.044761921 0.000930155992613)
(663.970671482 438.826046998 0.000830227576953)
(635.912319179 462.723536602 0.000759459269384)
(608.452532579 485.82862875 0.000681244715636)
(581.35676982 508.195227226 0.000586709578937)
(554.269859517 529.882382154 0.000473018417471)
(527.071104573 550.931917363 0.000338414988768)
(499.931090073 571.364410082 0.000181126947993)
(473.13080924 591.195911622 2.83256278126e-08)
(446.807007622 610.429431552 -0.000205088326294)
(420.808582472 629.064524022 -0.000434283166143)
(394.968727769 647.089978016 -0.000687612012592)
(369.047433217 664.488560869 -0.000964889715069)
(343.213324611 681.222985116 -0.00126583239805)
(317.805342026 697.24093057 -0.00158979545559)
(292.714496758 712.495108769 -0.00193494669875)
(267.834345858 726.920795152 -0.0022983293215)
(243.12541162 740.438302834 -0.00267652537479)
(218.763246952 752.963060292 -0.00306524613912)
(195.042213228 764.400295201 -0.00345919364753)
(171.676402951 774.681943821 -0.00385219173699)
(148.511093766 783.735812189 -0.00423671114391)
(125.778811129 791.483597752 -0.00460256693965)
(103.377408236 797.860201283 -0.00493577811811)
(81.2235508132 802.815665606 -0.00521806472572)
(59.401922744 806.31109104 -0.00541609721186)
(48.852758558 808.125168243 -0.00545519230659)
(16999.9999993 7.76606265161e-10 -7.83523683361e-13)
(16999.9999993 7.89862978131e-10 -7.79040041267e-13)
(16999.9999993 8.02899805237e-10 -7.75693955779e-13)
(16999.9999993 8.15719119458e-10 -7.72288684529e-13)
(16999.9999993 8.28323236151e-10 -7.68861154741e-13)
(16999.9999993 8.40714240824e-10 -7.65553654154e-13)
(16999.9999993 8.52894557675e-10 -7.61893085338e-13)
(16999.9999993 8.64866223374e-10 -7.57731439374e-13)
(16999.9999993 8.76631998756e-10 -7.54038935512e-13)
(16999.9999993 8.88194236359e-10 -7.50338594982e-13)
(16999.9999993 8.99555160974e-10 -7.45784843195e-13)
(16999.9999993 9.10716976968e-10 -7.41574801614e-13)
(16999.9999993 9.21682385972e-10 -7.38311955734e-13)
(16999.9999993 9.32453512382e-10 -7.34751044181e-13)
(16999.9999993 9.43032452916e-10 -7.3149608752e-13)
(16999.9999993 9.5342171448e-10 -7.28416376859e-13)
(16999.9999993 9.63623560719e-10 -7.24969570089e-13)
(16999.9999993 9.73639995943e-10 -7.21853794883e-13)
(16999.9999993 9.83473628418e-10 -7.18657741215e-13)
(16999.9999993 9.93126900788e-10 -7.16148084475e-13)
(16999.9999993 1.00260199051e-09 -7.13648274305e-13)
(16999.9999993 1.01190125398e-09 -7.10383919775e-13)
(16999.9999993 1.02102710541e-09 -7.06779814318e-13)
(16999.9999993 1.02998229442e-09 -7.02945190979e-13)
(16999.9999993 1.03876900626e-09 -7.00028112126e-13)
(16999.9999993 1.04739443787e-09 -6.97538345888e-13)
(16999.9999993 1.05617821671e-09 -7.64683397727e-13)
(16999.9999993 1.08649882628e-09 -5.45707155788e-12)
(16999.9999993 2.59260735761e-09 -3.1574551188e-10)
(16999.9999973 1.066445621e-07 -1.86182953031e-08)
(16999.9998529 7.71226379315e-06 -1.2044344765e-06)
(16999.9898872 0.000525222007311 -2.43402496954e-05)
(16999.0501855 0.0501512587266 -0.000320067675178)
(16961.3249492 1.84217944724 -0.00451030720565)
(16533.8463913 20.2717435369 -0.0118514364502)
(14324.7984783 115.482954118 -0.0060850226942)
(10318.2845887 287.330539561 0.00170439064443)
(6374.45191023 457.707093708 0.00267757677467)
(3478.96238169 586.392083376 0.00199937857346)
(1783.54703088 668.069804818 0.00132445723918)
(1020.48510034 713.324344844 0.000802433946031)
(771.945180852 737.882114475 0.000489001804425)
(697.337652036 755.094125574 0.000359014555019)
(659.432148769 770.717245313 0.000311664060362)
(628.108410453 786.03890538 0.000278000012356)
(598.581847793 801.230044787 0.000235746342586)
(570.141764853 816.305311651 0.000179110795653)
(542.514832207 831.261143107 0.000105904046228)
(515.581645729 846.085905422 1.4483934053e-05)
(489.115929521 860.774967619 -9.66645591791e-05)
(463.198796577 875.301361512 -0.000228792877791)
(438.031492912 889.623071394 -0.00038274111428)
(413.629411226 903.700790689 -0.000558858346636)
(389.740878647 917.503142179 -0.000756890507254)
(366.255551222 930.991259414 -0.000976023205735)
(343.026256156 944.11000281 -0.00121514345726)
(320.312741678 956.805375394 -0.00147256141514)
(298.513752277 968.994716565 -0.00174567555257)
(277.329540204 980.633534426 -0.00203123318366)
(256.359706288 991.676661861 -0.00232532679851)
(235.483047163 1002.05924306 -0.00262326722761)
(214.918006765 1011.70088128 -0.00291965465717)
(195.06960432 1020.49947108 -0.00320889208825)
(175.844784591 1028.39541949 -0.0034854571189)
(157.074860995 1035.34964856 -0.0037434139701)
(138.706304653 1041.31182017 -0.00397650085866)
(120.527525717 1046.24840899 -0.00417893109712)
(102.583349226 1050.12296666 -0.00434562685391)
(84.984384033 1052.90817371 -0.00447111967308)
(76.4824250232 1054.3206696 -0.00453276947965)
(16999.9999995 3.98015325808e-10 -2.93788151885e-13)
(16999.9999995 4.0495332678e-10 -2.9561095992e-13)
(16999.9999995 4.1178154003e-10 -2.9728456543e-13)
(16999.9999995 4.18500668127e-10 -2.98842334682e-13)
(16999.9999995 4.2511168902e-10 -3.00668079917e-13)
(16999.9999995 4.31615101775e-10 -3.02078213474e-13)
(16999.9999995 4.38011887556e-10 -3.03023745343e-13)
(16999.9999995 4.44302694961e-10 -3.04543852344e-13)
(16999.9999995 4.50488680953e-10 -3.05799282201e-13)
(16999.9999995 4.56571338178e-10 -3.06649829197e-13)
(16999.9999995 4.62551423202e-10 -3.07544687501e-13)
(16999.9999995 4.68430274222e-10 -3.08561133939e-13)
(16999.9999995 4.74209095705e-10 -3.08794848185e-13)
(16999.9999995 4.7988871261e-10 -3.09769349564e-13)
(16999.9999995 4.85470355601e-10 -3.10530565956e-13)
(16999.9999995 4.90954953988e-10 -3.11917922715e-13)
(16999.9999995 4.96344235975e-10 -3.12803695387e-13)
(16999.9999995 5.01638774209e-10 -3.13024533958e-13)
(16999.9999995 5.06839709164e-10 -3.13802087321e-13)
(16999.9999995 5.11948030564e-10 -3.14391806436e-13)
(16999.9999995 5.16964793142e-10 -3.15461769174e-13)
(16999.9999995 5.21891056799e-10 -3.16026798297e-13)
(16999.9999995 5.26727681055e-10 -3.167539732e-13)
(16999.9999995 5.31476031076e-10 -3.17080506647e-13)
(16999.9999995 5.3613748759e-10 -3.17645877515e-13)
(16999.9999995 5.40733398618e-10 -3.18718273486e-13)
(16999.9999995 5.46736340986e-10 -3.90434424573e-13)
(16999.9999995 6.59745425964e-10 -5.18607997766e-12)
(16999.9999994 8.37297404374e-09 -3.26984693765e-10)
(16999.9999925 5.39456223773e-07 -1.92960417995e-08)
(16999.9994922 3.87589323078e-05 -1.26437494242e-06)
(16999.9682199 0.00240050144563 -1.85412821966e-05)
(16996.5119416 0.26588231489 -0.000264826000635)
(16920.6910722 5.55827367321 -0.00245407688417)
(16141.8407026 58.6963778165 -0.00417679320263)
(13309.4337975 250.885772425 -0.00104400597818)
(9170.71330776 533.454103695 0.000979736546375)
(5459.81373128 786.452829859 0.000882981212743)
(2911.479663 961.218142599 0.000598610590848)
(1515.96635816 1059.19447687 0.000363245426034)
(942.750369318 1102.22298497 0.000198113022562)
(769.633401317 1118.08182134 0.000111150064057)
(711.698119027 1126.20274097 7.62323268915e-05)
(676.076865282 1133.11226522 5.53752767632e-05)
(644.754363543 1140.05957688 2.95422988806e-05)
(614.790270199 1147.22759921 -6.83674758802e-06)
(586.004563557 1154.58491468 -5.58963685466e-05)
(558.176957177 1162.11708974 -0.000119131631607)
(531.146788572 1169.80167297 -0.000197876737943)
(504.854149447 1177.61451935 -0.000293386459242)
(479.353759504 1185.5215972 -0.00040666312705)
(454.736485199 1193.47870084 -0.000538297412459)
(430.946850047 1201.44511714 -0.000688413427761)
(407.841752195 1209.38954837 -0.000856606717398)
(385.089348205 1217.28294245 -0.00104205493032)
(362.827414452 1225.07053849 -0.00124352620255)
(341.512753132 1232.67379016 -0.00145898920952)
(321.154640221 1240.03629858 -0.00168567024869)
(301.512263325 1247.12207527 -0.0019203290871)
(282.177190086 1253.91514996 -0.00215927983454)
(263.08804795 1260.36257915 -0.00239849286258)
(244.162482456 1266.42119432 -0.00263359151488)
(225.670235184 1272.01863676 -0.00285994533934)
(207.976154753 1277.07087368 -0.00307291122778)
(190.856409905 1281.55602381 -0.00326799280478)
(174.089176853 1285.45273289 -0.00344099387187)
(157.527493168 1288.74475739 -0.00358826646412)
(141.184878185 1291.41049703 -0.0037067818369)
(125.187281703 1293.42699129 -0.00379390528627)
(117.356449447 1294.44038861 -0.00383686006182)
(16999.9999996 2.33085422749e-10 -1.0420726293e-13)
(16999.9999996 2.37150018826e-10 -1.05320933398e-13)
(16999.9999996 2.41151698456e-10 -1.0651960641e-13)
(16999.9999996 2.45090323121e-10 -1.07701448457e-13)
(16999.9999996 2.48966332645e-10 -1.08927683959e-13)
(16999.9999996 2.52780319008e-10 -1.10372507601e-13)
(16999.9999996 2.56532565708e-10 -1.11766421333e-13)
(16999.9999996 2.60223326888e-10 -1.12705040809e-13)
(16999.9999996 2.63852917151e-10 -1.13680860666e-13)
(16999.9999996 2.67421936427e-10 -1.1500860802e-13)
(16999.9999996 2.70931035106e-10 -1.16040817436e-13)
(16999.9999996 2.74380668526e-10 -1.17053089298e-13)
(16999.9999996 2.77771216036e-10 -1.17894641435e-13)
(16999.9999996 2.8110376868e-10 -1.18724295836e-13)
(16999.9999996 2.84378985102e-10 -1.19671227683e-13)
(16999.9999996 2.87597480038e-10 -1.20281153929e-13)
(16999.9999996 2.90759695405e-10 -1.21015316936e-13)
(16999.9999996 2.93866638087e-10 -1.21911271881e-13)
(16999.9999996 2.96918860215e-10 -1.22669004867e-13)
(16999.9999996 2.99917214212e-10 -1.23043213179e-13)
(16999.9999996 3.02862212987e-10 -1.23840760815e-13)
(16999.9999996 3.0575446649e-10 -1.24292275002e-13)
(16999.9999996 3.08594392246e-10 -1.24712875609e-13)
(16999.9999996 3.11382681635e-10 -1.25206929004e-13)
(16999.9999996 3.14120767105e-10 -1.25658102949e-13)
(16999.9999996 3.16870736008e-10 -1.27007076712e-13)
(16999.9999996 3.24008055999e-10 -1.87340438662e-13)
(16999.9999996 6.45709179084e-10 -4.22031209658e-12)
(16999.9999994 2.33701499279e-08 -2.70876974468e-10)
(16999.9999835 1.61154521111e-06 -1.57950997952e-08)
(16999.9988055 0.000118796938051 -1.01530744251e-06)
(16999.9255193 0.00735797466996 -1.26887751912e-05)
(16991.6317263 0.830406910537 -0.00019768294743)
(16863.5949992 12.8206567018 -0.00121300805103)
(15750.5968553 116.569342912 -0.00145895799145)
(12540.038537 413.065720386 -0.000161880756125)
(8401.77667862 795.504497662 0.000389781797386)
(4900.22959444 1117.65071784 0.000309400041375)
(2598.84050246 1328.12177663 0.000196575692768)
(1400.15719292 1436.36766664 0.000103883849526)
(940.131584401 1475.78925103 3.87842393653e-05)
(806.025514106 1484.54118015 2.92976747327e-06)
(756.136704753 1485.59570363 -1.70612742642e-05)
(721.542091253 1485.62051111 -3.61825182739e-05)
(690.110244183 1485.78196505 -6.13749537249e-05)
(660.036585471 1486.2539494 -9.51370971041e-05)
(631.004899845 1487.04407895 -0.000138876077872)
(602.914089745 1488.13553268 -0.000193814799245)
(575.725246884 1489.50558447 -0.000261111263417)
(549.446413951 1491.13043313 -0.000341785312088)
(524.073053741 1492.98537085 -0.000436615528535)
(499.546351623 1495.0495679 -0.000546033767759)
(475.868955265 1497.29506353 -0.000670054905139)
(452.721580373 1499.71036173 -0.000808339216217)
(430.046001472 1502.27058841 -0.000960198833861)
(408.170213796 1504.91958503 -0.00112435980755)
(387.184792334 1507.61023694 -0.00129895872549)
(367.150331826 1510.29973954 -0.00148167110363)
(348.021320656 1512.96081246 -0.00166976569764)
(329.306428426 1515.60473598 -0.00186019470397)
(310.801573012 1518.22787279 -0.00204968613357)
(292.696000255 1520.77427325 -0.00223470584283)
(274.981367785 1523.21721348 -0.0024115665949)
(257.758115049 1525.51248423 -0.00257665636407)
(241.024387513 1527.63630095 -0.00272661962837)
(224.686065994 1529.5781301 -0.00285840588919)
(208.684790755 1531.32541636 -0.00296931464122)
(193.026715828 1532.86403954 -0.00305708402352)
(177.761508747 1534.17088478 -0.00312002408694)
(170.233911641 1534.81815627 -0.00315108837802)
(16999.9999997 1.5172335726e-10 -4.3671890094e-14)
(16999.9999997 1.54350908118e-10 -4.43906015275e-14)
(16999.9999997 1.56936941339e-10 -4.48491067426e-14)
(16999.9999997 1.59481503884e-10 -4.51543253178e-14)
(16999.9999997 1.61985030332e-10 -4.57456961713e-14)
(16999.9999997 1.64448141646e-10 -4.64231492641e-14)
(16999.9999997 1.668708052e-10 -4.64683940965e-14)
(16999.9999997 1.69253675609e-10 -4.69767208217e-14)
(16999.9999997 1.71596842796e-10 -4.7744203375e-14)
(16999.9999997 1.73900495154e-10 -4.82679054765e-14)
(16999.9999997 1.76165551648e-10 -4.90106396398e-14)
(16999.9999997 1.78392547057e-10 -4.94049705895e-14)
(16999.9999997 1.80581497862e-10 -5.022066555e-14)
(16999.9999997 1.82732610805e-10 -5.06376519269e-14)
(16999.9999997 1.8484642814e-10 -5.06890171803e-14)
(16999.9999997 1.86924039237e-10 -5.08615770805e-14)
(16999.9999997 1.88965424669e-10 -5.15645216047e-14)
(16999.9999997 1.90970438394e-10 -5.20573576045e-14)
(16999.9999997 1.9294027527e-10 -5.2470291403e-14)
(16999.9999997 1.94875599066e-10 -5.29487696301e-14)
(16999.9999997 1.9677654545e-10 -5.33202333689e-14)
(16999.9999997 1.98643219346e-10 -5.37265015777e-14)
(16999.9999997 2.00476560154e-10 -5.43304337218e-14)
(16999.9999997 2.02276573369e-10 -5.46831276385e-14)
(16999.9999997 2.04045762211e-10 -5.51527775236e-14)
(16999.9999997 2.05918352081e-10 -5.5873148004e-14)
(16999.9999997 2.17539524574e-10 -9.90889091437e-14)
(16999.9999997 9.25790944732e-10 -2.92209361123e-12)
(16999.9999993 5.10683313225e-08 -1.83308476231e-10)
(16999.999971 3.51525671088e-06 -1.03111678691e-08)
(16999.9979117 0.000255701853791 -6.31129909958e-07)
(16999.8717122 0.0156353314971 -6.90916621949e-06)
(16985.7568142 1.74052863534 -0.000111857450435)
(16807.498114 22.6966294321 -0.000519685056648)
(15443.3239359 182.837517089 -0.000501366477221)
(11991.1131938 584.317500631 -1.50571516694e-05)
(7887.85820618 1059.39324449 0.000141881201399)
(4555.09780046 1442.32179802 0.000103032502179)
(2430.94018087 1682.80053945 5.69256797016e-05)
(1366.65900796 1798.50417736 1.85424003713e-05)
(978.733878711 1834.13425958 -9.83479995768e-06)
(866.75449217 1836.97725792 -2.85301683038e-05)
(820.935308211 1832.25748383 -4.3669532335e-05)
(786.690438237 1826.61380058 -6.11856396901e-05)
(755.091934607 1821.14556538 -8.38743840782e-05)
(724.854527204 1816.01235755 -0.000113128815819)
(695.658048152 1811.24629028 -0.000150016899772)
(667.350123374 1806.85154658 -0.000195509997205)
(639.924784672 1802.81199761 -0.000250495032634)
(613.406980445 1799.10850573 -0.000315725354267)
(587.80504589 1795.72730581 -0.000391752042771)
(563.197472398 1792.63524677 -0.00047888232892)
(539.215309856 1789.8648966 -0.000577136843397)
(515.69337248 1787.4189538 -0.000686223774828)
(492.920116215 1785.25716609 -0.000805467500766)
(470.917388316 1783.36189555 -0.000933788115241)
(449.764832246 1781.70821925 -0.00106971771905)
(429.678206939 1780.25418235 -0.00121140281365)
(410.419883331 1779.00299791 -0.00135667980476)
(391.761119024 1777.96834666 -0.00150319015952)
(373.572461607 1777.16092174 -0.00164834324764)
(355.584099184 1776.6025075 -0.00178939253435)
(337.94744852 1776.26413066 -0.00192356808919)
(320.948925527 1776.09987633 -0.00204816061587)
(304.651015012 1776.09430271 -0.00216060102402)
(288.793626078 1776.26226817 -0.00225857436279)
(273.202742323 1776.62016464 -0.00234009452159)
(257.625086611 1777.19216506 -0.00240353655992)
(242.177041353 1777.95865209 -0.00244770867431)
(234.673291134 1778.32278587 -0.00246942515165)
(16999.9999997 1.0665249313e-10 -1.70297890884e-14)
(16999.9999997 1.08491514158e-10 -1.71207967081e-14)
(16999.9999997 1.10301085089e-10 -1.72524821203e-14)
(16999.9999997 1.1208102743e-10 -1.75309164375e-14)
(16999.9999997 1.13831164318e-10 -1.77981953931e-14)
(16999.9999997 1.1555262397e-10 -1.86818091384e-14)
(16999.9999997 1.17245472717e-10 -1.90646741849e-14)
(16999.9999997 1.18909239451e-10 -1.90387652515e-14)
(16999.9999997 1.2054466153e-10 -1.90410158118e-14)
(16999.9999997 1.22152334433e-10 -1.95545385326e-14)
(16999.9999997 1.23732319579e-10 -1.98192444448e-14)
(16999.9999997 1.25285602726e-10 -2.02173456239e-14)
(16999.9999997 1.26812279619e-10 -2.07144396994e-14)
(16999.9999997 1.28312744802e-10 -2.08067350785e-14)
(16999.9999997 1.29787100057e-10 -2.12584107924e-14)
(16999.9999997 1.31235929225e-10 -2.1152422273e-14)
(16999.9999997 1.32659468348e-10 -2.15811472916e-14)
(16999.9999997 1.340577656e-10 -2.17852415202e-14)
(16999.9999998 1.35431142794e-10 -2.21491703272e-14)
(16999.9999998 1.36780361336e-10 -2.23752667089e-14)
(16999.9999998 1.38106003623e-10 -2.27624542157e-14)
(16999.9999998 1.39407798806e-10 -2.28119786465e-14)
(16999.9999998 1.40686413e-10 -2.33954009862e-14)
(16999.9999998 1.41941659984e-10 -2.37396796904e-14)
(16999.9999998 1.4317747195e-10 -2.39807683873e-14)
(16999.9999998 1.44638557819e-10 -2.46026196835e-14)
(16999.9999998 1.63834883399e-10 -4.97890302976e-14)
(16999.9999997 1.43821120957e-09 -1.63885087208e-12)
(16999.9999991 9.08333779131e-08 -9.95017783345e-11)
(16999.9999573 6.18900989121e-06 -5.4025977334e-09)
(16999.9969553 0.000442807886097 -3.10669658766e-07)
(16999.8152193 0.0267791483759 -3.30986659126e-06)
(16980.0344228 2.89864504605 -5.46275025682e-05)
(16755.0206585 34.6830971036 -0.000204264347028)
(15195.1019505 254.202263184 -0.000162237438955)
(11591.2460396 757.187835314 4.3950116573e-06)
(7540.12462542 1319.16796024 4.19204096583e-05)
(4343.1679626 1758.16753657 2.3894696133e-05)
(2352.82382857 2025.58869006 5.47321290808e-06)
(1384.72341836 2147.64113736 -1.02787646436e-05)
(1044.3378091 2179.93310589 -2.32746326313e-05)
(945.929623075 2177.63609645 -3.43415742427e-05)
(902.137587039 2167.90044938 -4.6050318157e-05)
(867.904231226 2157.31161661 -6.06104749731e-05)
(836.099971296 2146.92807915 -7.92311006916e-05)
(805.625798772 2136.9136183 -0.000102760370517)
(776.150317421 2127.31259942 -0.000131971262212)
(747.502582943 2118.14274549 -0.000167582600982)
(719.670166563 2109.39906768 -0.00021023270086)
(692.775729874 2101.06023855 -0.00026044552495)
(666.656369699 2093.13594732 -0.000318600306739)
(641.278675854 2085.62831499 -0.000384902937652)
(616.759997041 2078.51168016 -0.000459331745977)
(593.028328054 2071.80639909 -0.000541604902296)
(570.1250261 2065.50868613 -0.000631162017084)
(548.075061764 2059.62254259 -0.000727161397007)
(526.964381191 2054.13180123 -0.000828481977046)
(506.560167811 2049.07471002 -0.000933729151893)
(486.80973488 2044.45260275 -0.00104128540303)
(467.814773264 2040.25464339 -0.00114933321177)
(449.395379001 2036.50810753 -0.00125591818485)
(431.487998572 2033.23152911 -0.00135900847671)
(414.094175745 2030.43884044 -0.00145655144245)
(397.362725519 2028.10784417 -0.00154654121307)
(381.007340246 2026.28369685 -0.001627086855)
(364.909161066 2024.98245242 -0.00169649576696)
(349.236695475 2024.17952061 -0.00175330592445)
(333.898351881 2023.88767414 -0.00179633588347)
(318.975846406 2024.10139584 -0.00182471990695)
(311.581980892 2024.21068497 -0.00183854890555)
(16999.9999998 7.92113050964e-11 -4.40438986523e-15)
(16999.9999998 8.05754907638e-11 -4.64087965893e-15)
(16999.9999998 8.19170353608e-11 -4.74682462279e-15)
(16999.9999998 8.32371280963e-11 -4.9311873246e-15)
(16999.9999998 8.45359659398e-11 -4.47999539198e-15)
(16999.9999998 8.58137729841e-11 -4.59680196887e-15)
(16999.9999998 8.70708667816e-11 -4.64749269254e-15)
(16999.9999998 8.83072382113e-11 -4.86648225368e-15)
(16999.9999998 8.95222778472e-11 -4.69588705131e-15)
(16999.9999998 9.07168577304e-11 -4.80635923742e-15)
(16999.9999998 9.18902941794e-11 -4.92824550773e-15)
(16999.9999998 9.3043603493e-11 -4.8213009232e-15)
(16999.9999998 9.41766446815e-11 -4.95114934972e-15)
(16999.9999998 9.52904845878e-11 -4.95476552849e-15)
(16999.9999998 9.63850430894e-11 -5.3173033617e-15)
(16999.9999998 9.74598839434e-11 -5.77645842432e-15)
(16999.9999998 9.85162229097e-11 -5.93669750993e-15)
(16999.9999998 9.95534194169e-11 -6.06982843184e-15)
(16999.9999998 1.00571892095e-10 -6.0588102059e-15)
(16999.9999998 1.01572534358e-10 -6.37191345689e-15)
(16999.9999998 1.02554954184e-10 -6.40676409195e-15)
(16999.9999998 1.03519487945e-10 -6.38881897105e-15)
(16999.9999998 1.04466413403e-10 -6.68225847734e-15)
(16999.9999998 1.05396151159e-10 -7.0350821767e-15)
(16999.9999998 1.0631469255e-10 -7.28115780533e-15)
(16999.9999998 1.07614363668e-10 -7.17564859707e-15)
(16999.9999998 1.37191542513e-10 -1.75147510945e-14)
(16999.9999998 2.14592094692e-09 -6.32360022725e-13)
(16999.999999 1.41223889493e-07 -3.63634900942e-11)
(16999.9999435 9.48934765505e-06 -1.86541336355e-09)
(16999.9960487 0.000665689944605 -9.74306200393e-08)
(16999.763421 0.039742980409 -1.04927693737e-06)
(16975.3313056 4.14769399496 -1.67804515715e-05)
(16708.0538225 48.1874980549 -5.33619013862e-05)
(14992.3934841 329.118721813 -3.96251799724e-05)
(11293.9048467 930.174240224 -6.35195370534e-06)
(7301.84137499 1574.32667375 -2.84580336831e-06)
(4217.92748592 2065.89751307 -8.46144618579e-06)
(2332.43317066 2358.31033227 -1.37303923186e-05)
(1437.40986745 2485.91742503 -1.89344146939e-05)
(1131.05410888 2515.11059695 -2.46612554178e-05)
(1041.06174024 2508.24678019 -3.15023286763e-05)
(998.148543113 2494.00596151 -4.01899273631e-05)
(963.656552506 2478.96128157 -5.13759331092e-05)
(931.544839758 2464.14075108 -6.56098827367e-05)
(900.69445501 2449.73526094 -8.34183529653e-05)
(870.764173595 2435.80279864 -0.000105319431677)
(841.628885334 2422.36539319 -0.000131803368122)
(813.392938079 2409.41041558 -0.000163307189843)
(785.890571088 2396.96007624 -0.000200184547944)
(759.105135699 2385.0186177 -0.000242683759769)
(733.193806919 2373.5700771 -0.000290915530281)
(708.069222684 2362.63195235 -0.000344827449645)
(683.810347384 2352.20294678 -0.000404180009677)
(660.6178714 2342.26832294 -0.000468535613596)
(638.320680965 2332.86941276 -0.000537246888151)
(616.833016767 2324.04165541 -0.000609474869497)
(596.195470827 2315.79135115 -0.000684189830814)
(576.151255201 2308.18334565 -0.000760200465657)
(556.67568588 2301.23418125 -0.000836186638979)
(537.806269698 2294.95842759 -0.00091072975801)
(519.705788206 2289.34031592 -0.000982347719773)
(502.213636683 2284.43168138 -0.00104954402052)
(485.265439553 2280.2616533 -0.00111087996642)
(468.91744521 2276.83250566 -0.00116499531772)
(452.920654748 2274.2052526 -0.00121066577018)
(437.222874771 2272.39516252 -0.00124684621222)
(421.879341535 2271.39825368 -0.00127268696156)
(407.019274242 2271.19424196 -0.00128757121262)
(399.649260242 2271.09279861 -0.00129465814311)
(16999.9999998 6.13560839461e-11 1.38475047707e-15)
(16999.9999998 6.24137540781e-11 1.41871615352e-15)
(16999.9999998 6.34535584077e-11 1.36035751919e-15)
(16999.9999998 6.44758413439e-11 1.33006553999e-15)
(16999.9999998 6.54812917401e-11 1.34819304364e-15)
(16999.9999998 6.64698719703e-11 1.08333618943e-15)
(16999.9999998 6.7442327632e-11 1.1815896113e-15)
(16999.9999998 6.8398180959e-11 9.92804904408e-16)
(16999.9999998 6.9338289492e-11 9.86203759134e-16)
(16999.9999998 7.02624021546e-11 5.61763573291e-16)
(16999.9999998 7.11708513751e-11 5.06182435851e-16)
(16999.9999998 7.20638566839e-11 7.15534164001e-16)
(16999.9999998 7.29405522573e-11 6.86220002638e-16)
(16999.9999998 7.38023115113e-11 6.56691800264e-16)
(16999.9999998 7.4649062939e-11 3.21566177332e-16)
(16999.9999998 7.54806003153e-11 3.51382105707e-16)
(16999.9999998 7.62980786869e-11 1.68215245934e-16)
(16999.9999998 7.71004219411e-11 -2.37911418724e-16)
(16999.9999998 7.78881313013e-11 -2.74336687156e-16)
(16999.9999998 7.8662091121e-11 -3.3000726697e-16)
(16999.9999998 7.94224597143e-11 -3.4862064022e-16)