/*--------------------------------*- C++ -*----------------------------------*\
| =========                 |                                                 |
| \\      /  F ield         | foam-extend: Open Source CFD                    |
|  \\    /   O peration     | Version:     4.1                                |
|   \\  /    A nd           | Web:         http://www.foam-extend.org         |
|    \\/     M anipulation  |                                                 |
\*---------------------------------------------------------------------------*/
FoamFile
{
    version     2.0;
    format      ascii;
    class       volScalarField;
    location    "5e-05";
    object      rho;
}
// * * * * * * * * * * * * * * * * * * * * * * * * * * * * * * * * * * * * * //

dimensions      [1 -3 0 0 0 0 0];

internalField   nonuniform List<scalar> 
4200
(
0.0638471754003
0.0638471754003
0.0638471754003
0.0638471754003
0.0638471754003
0.0638471754003
0.0638471754003
0.0638471754003
0.0638471754003
0.0638471754003
0.0638471754003
0.0638471754003
0.0638471754003
0.0638471754002
0.0638471754002
0.0638471754002
0.0638471754002
0.0638471754002
0.0638471754002
0.0638471754002
0.0638471754002
0.0638471754002
0.0638471754002
0.0638471754002
0.0638471754002
0.0638471754002
0.0638471754002
0.0638471754002
0.0638471754002
0.0638471754002
0.0638471754002
0.0638471754002
0.0638471754002
0.0638471754002
0.0638471754002
0.0638471754002
0.0638471754002
0.0638471754002
0.0638471754001
0.0638471754001
0.0638471754001
0.0638471754001
0.0638471754001
0.0638471754001
0.0638471754001
0.0638471754002
0.063847175402
0.0638471754378
0.0638471761615
0.0638471907804
0.0638474819526
0.0638530209509
0.0639448845379
0.0649998771555
0.0717861224654
0.0958624380196
0.14889356685
0.235881365258
0.352318582473
0.537699279533
0.0638471754007
0.0638471754007
0.0638471754007
0.0638471754007
0.0638471754007
0.0638471754007
0.0638471754007
0.0638471754007
0.0638471754007
0.0638471754007
0.0638471754007
0.0638471754007
0.0638471754006
0.0638471754006
0.0638471754006
0.0638471754006
0.0638471754006
0.0638471754006
0.0638471754006
0.0638471754006
0.0638471754006
0.0638471754006
0.0638471754006
0.0638471754006
0.0638471754006
0.0638471754006
0.0638471754006
0.0638471754006
0.0638471754006
0.0638471754006
0.0638471754006
0.0638471754006
0.0638471754006
0.0638471754006
0.0638471754006
0.0638471754006
0.0638471754006
0.0638471754006
0.0638471754006
0.0638471754006
0.0638471754006
0.0638471754006
0.0638471754006
0.0638471754006
0.0638471754006
0.0638471754007
0.0638471754025
0.0638471754385
0.0638471761671
0.063847190906
0.0638474849697
0.0638530900111
0.0639461678362
0.0650146088356
0.0718776907573
0.0962041200759
0.149838270554
0.238046179404
0.356433221209
0.544121363239
0.0638471754008
0.0638471754008
0.0638471754008
0.0638471754008
0.0638471754008
0.0638471754008
0.0638471754008
0.0638471754008
0.0638471754008
0.0638471754008
0.0638471754008
0.0638471754008
0.0638471754008
0.0638471754008
0.0638471754008
0.0638471754008
0.0638471754008
0.0638471754008
0.0638471754008
0.0638471754008
0.0638471754008
0.0638471754008
0.0638471754008
0.0638471754008
0.0638471754008
0.0638471754008
0.0638471754008
0.0638471754008
0.0638471754008
0.0638471754008
0.0638471754008
0.0638471754008
0.0638471754008
0.0638471754007
0.0638471754007
0.0638471754007
0.0638471754007
0.0638471754007
0.0638471754007
0.0638471754007
0.0638471754007
0.0638471754007
0.0638471754007
0.0638471754007
0.0638471754007
0.0638471754008
0.0638471754026
0.0638471754384
0.0638471761626
0.0638471907998
0.0638474825921
0.0638530404098
0.0639453559976
0.0650066542691
0.0718385630992
0.0961067331475
0.149704523515
0.237991941898
0.356745159103
0.545339880299
0.0638471754008
0.0638471754008
0.0638471754008
0.0638471754008
0.0638471754008
0.0638471754008
0.0638471754008
0.0638471754008
0.0638471754008
0.0638471754008
0.0638471754008
0.0638471754008
0.0638471754008
0.0638471754008
0.0638471754008
0.0638471754008
0.0638471754008
0.0638471754008
0.0638471754008
0.0638471754008
0.0638471754008
0.0638471754008
0.0638471754008
0.0638471754008
0.0638471754008
0.0638471754008
0.0638471754008
0.0638471754008
0.0638471754008
0.0638471754008
0.0638471754008
0.0638471754008
0.0638471754008
0.0638471754008
0.0638471754008
0.0638471754008
0.0638471754008
0.0638471754008
0.0638471754008
0.0638471754008
0.0638471754008
0.0638471754008
0.0638471754008
0.0638471754008
0.0638471754008
0.0638471754009
0.0638471754027
0.0638471754382
0.0638471761549
0.0638471906057
0.063847478101
0.0638529449567
0.0639437303072
0.0649899376655
0.0717507937243
0.0958597291442
0.149259728904
0.237419907407
0.35636935109
0.546014326635
0.0638471754009
0.0638471754009
0.0638471754009
0.0638471754009
0.0638471754009
0.0638471754009
0.0638471754009
0.0638471754009
0.0638471754009
0.0638471754009
0.0638471754009
0.0638471754009
0.0638471754009
0.0638471754009
0.0638471754009
0.0638471754009
0.0638471754009
0.0638471754009
0.0638471754009
0.0638471754009
0.0638471754009
0.0638471754009
0.0638471754009
0.0638471754009
0.0638471754009
0.0638471754009
0.0638471754009
0.0638471754009
0.0638471754009
0.0638471754009
0.0638471754009
0.0638471754008
0.0638471754008
0.0638471754008
0.0638471754008
0.0638471754008
0.0638471754008
0.0638471754008
0.0638471754008
0.0638471754008
0.0638471754008
0.0638471754008
0.0638471754008
0.0638471754008
0.0638471754008
0.0638471754009
0.0638471754027
0.0638471754378
0.0638471761445
0.0638471903489
0.063847472136
0.0638528189476
0.0639415684901
0.0649674660335
0.0716311208144
0.0955170617029
0.148628724963
0.236573842597
0.355713793288
0.546682055646
0.0638471754009
0.0638471754009
0.0638471754009
0.0638471754009
0.0638471754009
0.0638471754009
0.0638471754009
0.0638471754009
0.0638471754009
0.0638471754009
0.0638471754009
0.0638471754009
0.0638471754009
0.0638471754009
0.0638471754009
0.0638471754009
0.0638471754009
0.0638471754009
0.0638471754009
0.0638471754009
0.0638471754009
0.0638471754009
0.0638471754009
0.0638471754009
0.0638471754009
0.0638471754009
0.0638471754009
0.0638471754009
0.0638471754009
0.0638471754009
0.0638471754009
0.0638471754009
0.0638471754009
0.0638471754009
0.0638471754009
0.0638471754009
0.0638471754009
0.0638471754009
0.0638471754009
0.0638471754009
0.0638471754009
0.0638471754009
0.0638471754009
0.0638471754009
0.0638471754009
0.063847175401
0.0638471754027
0.0638471754374
0.0638471761318
0.0638471900346
0.0638474648489
0.0638526652783
0.0639389310018
0.0649399648306
0.0714836197519
0.0950915766349
0.147839035063
0.235504246653
0.354859255464
0.547446820292
0.0638471754009
0.0638471754009
0.0638471754009
0.0638471754009
0.0638471754009
0.0638471754009
0.0638471754009
0.0638471754009
0.0638471754009
0.0638471754009
0.0638471754009
0.0638471754009
0.0638471754009
0.0638471754009
0.0638471754009
0.0638471754009
0.0638471754009
0.0638471754009
0.0638471754009
0.0638471754009
0.0638471754009
0.0638471754009
0.0638471754009
0.0638471754009
0.0638471754009
0.0638471754009
0.0638471754009
0.0638471754009
0.0638471754009
0.0638471754009
0.0638471754009
0.0638471754009
0.0638471754009
0.0638471754009
0.0638471754009
0.0638471754009
0.0638471754009
0.0638471754009
0.0638471754009
0.0638471754009
0.0638471754009
0.0638471754009
0.0638471754009
0.0638471754009
0.0638471754009
0.063847175401
0.0638471754027
0.0638471754369
0.0638471761174
0.0638471896791
0.0638474565731
0.063852489402
0.0639359066289
0.0649081430475
0.0713113683636
0.0945902067494
0.146902886104
0.234225883533
0.353819186876
0.548314097473
0.0638471754009
0.0638471754009
0.0638471754009
0.0638471754009
0.0638471754009
0.0638471754009
0.0638471754009
0.0638471754009
0.0638471754009
0.0638471754009
0.0638471754009
0.0638471754009
0.0638471754009
0.0638471754009
0.0638471754009
0.0638471754009
0.0638471754009
0.0638471754009
0.0638471754009
0.0638471754009
0.0638471754009
0.0638471754009
0.0638471754009
0.0638471754009
0.0638471754009
0.0638471754009
0.0638471754009
0.0638471754009
0.0638471754009
0.0638471754009
0.0638471754009
0.0638471754009
0.0638471754009
0.0638471754009
0.0638471754009
0.0638471754009
0.0638471754009
0.0638471754009
0.0638471754009
0.0638471754009
0.0638471754009
0.0638471754009
0.0638471754009
0.0638471754009
0.0638471754009
0.063847175401
0.0638471754027
0.0638471754363
0.0638471761016
0.0638471892834
0.0638474473789
0.0638522945588
0.0639325397038
0.0648724117115
0.0711160039187
0.0940162345382
0.145824090579
0.232743080411
0.352596037316
0.549284839203
0.0638471754009
0.0638471754009
0.0638471754009
0.0638471754009
0.0638471754009
0.0638471754009
0.0638471754009
0.0638471754009
0.0638471754009
0.0638471754009
0.0638471754009
0.0638471754009
0.0638471754009
0.0638471754009
0.0638471754009
0.0638471754009
0.0638471754009
0.0638471754009
0.0638471754009
0.0638471754009
0.0638471754009
0.0638471754009
0.0638471754009
0.0638471754009
0.0638471754009
0.0638471754009
0.0638471754009
0.0638471754009
0.0638471754009
0.0638471754009
0.0638471754009
0.0638471754009
0.0638471754009
0.0638471754009
0.0638471754009
0.0638471754009
0.0638471754009
0.0638471754009
0.0638471754009
0.0638471754009
0.0638471754009
0.0638471754009
0.0638471754009
0.0638471754009
0.0638471754009
0.063847175401
0.0638471754027
0.0638471754356
0.0638471760838
0.0638471888461
0.0638474372977
0.0638520823203
0.0639288721674
0.0648331226625
0.0708988885995
0.0933719899156
0.14460593296
0.231058497758
0.351190665487
0.550363186208
0.0638471754009
0.0638471754009
0.0638471754009
0.0638471754009
0.0638471754009
0.0638471754009
0.0638471754009
0.0638471754009
0.0638471754009
0.0638471754009
0.0638471754009
0.0638471754009
0.0638471754009
0.0638471754009
0.0638471754009
0.0638471754009
0.0638471754009
0.0638471754009
0.0638471754009
0.0638471754009
0.0638471754009
0.0638471754009
0.0638471754009
0.0638471754009
0.0638471754009
0.0638471754009
0.0638471754009
0.0638471754009
0.0638471754009
0.0638471754009
0.0638471754009
0.0638471754009
0.0638471754009
0.0638471754009
0.0638471754009
0.0638471754009
0.0638471754009
0.0638471754009
0.0638471754009
0.0638471754009
0.0638471754009
0.0638471754009
0.0638471754009
0.0638471754009
0.0638471754009
0.063847175401
0.0638471754027
0.0638471754349
0.0638471760651
0.0638471883839
0.0638474266321
0.0638518570884
0.0639249668466
0.0647909167788
0.0706625330909
0.0926624201787
0.143254037222
0.229175045938
0.349599620657
0.551533338204
0.0638471754009
0.0638471754009
0.0638471754009
0.0638471754009
0.0638471754009
0.0638471754009
0.0638471754009
0.0638471754009
0.0638471754009
0.0638471754009
0.0638471754009
0.0638471754009
0.0638471754009
0.0638471754009
0.0638471754009
0.0638471754009
0.0638471754009
0.0638471754009
0.0638471754009
0.0638471754009
0.0638471754009
0.0638471754009
0.0638471754009
0.0638471754009
0.0638471754009
0.0638471754009
0.0638471754009
0.0638471754009
0.0638471754009
0.0638471754009
0.0638471754009
0.0638471754009
0.0638471754009
0.0638471754009
0.0638471754009
0.0638471754009
0.0638471754009
0.0638471754009
0.0638471754009
0.0638471754009
0.0638471754009
0.0638471754009
0.0638471754009
0.0638471754009
0.0638471754009
0.063847175401
0.0638471754026
0.0638471754342
0.0638471760457
0.0638471879047
0.0638474155242
0.0638516222752
0.063920896688
0.0647464067283
0.070409835966
0.0918937937294
0.141776748031
0.227099034264
0.347815234204
0.552767811458
0.0638471754009
0.0638471754009
0.0638471754009
0.0638471754009
0.0638471754009
0.0638471754009
0.0638471754009
0.0638471754009
0.0638471754009
0.0638471754009
0.0638471754009
0.0638471754009
0.0638471754009
0.0638471754009
0.0638471754009
0.0638471754009
0.0638471754009
0.0638471754009
0.0638471754009
0.0638471754009
0.0638471754009
0.0638471754009
0.0638471754009
0.0638471754009
0.0638471754009
0.0638471754009
0.0638471754009
0.0638471754009
0.0638471754009
0.0638471754009
0.0638471754009
0.0638471754009
0.0638471754009
0.0638471754009
0.0638471754009
0.0638471754009
0.0638471754009
0.0638471754009
0.0638471754009
0.0638471754009
0.0638471754009
0.0638471754009
0.0638471754009
0.0638471754009
0.0638471754009
0.063847175401
0.0638471754026
0.0638471754335
0.0638471760256
0.063847187409
0.0638474041823
0.063851383247
0.0639167192134
0.0647001978608
0.0701434044223
0.0910716131237
0.140180984053
0.224835214927
0.345835737175
0.554044573531
0.0638471754009
0.0638471754009
0.0638471754009
0.0638471754009
0.0638471754009
0.0638471754009
0.0638471754009
0.0638471754009
0.0638471754009
0.0638471754009
0.0638471754009
0.0638471754009
0.0638471754009
0.0638471754009
0.0638471754009
0.0638471754009
0.0638471754009
0.0638471754009
0.0638471754009
0.0638471754009
0.0638471754009
0.0638471754009
0.0638471754009
0.0638471754009
0.0638471754009
0.0638471754009
0.0638471754009
0.0638471754009
0.0638471754009
0.0638471754009
0.0638471754009
0.0638471754009
0.0638471754009
0.0638471754009
0.0638471754009
0.0638471754009
0.0638471754009
0.0638471754009
0.0638471754009
0.0638471754009
0.0638471754009
0.0638471754009
0.0638471754009
0.0638471754009
0.0638471754009
0.063847175401
0.0638471754026
0.0638471754328
0.0638471760055
0.0638471869077
0.0638473926344
0.0638511410002
0.0639124925353
0.0646528161934
0.0698655990759
0.0902006965204
0.138473342402
0.222388532235
0.343657162998
0.555346280825
0.0638471754009
0.0638471754009
0.0638471754009
0.0638471754009
0.0638471754009
0.0638471754009
0.0638471754009
0.0638471754009
0.0638471754009
0.0638471754009
0.0638471754009
0.0638471754009
0.0638471754009
0.0638471754009
0.0638471754009
0.0638471754009
0.0638471754009
0.0638471754009
0.0638471754009
0.0638471754009
0.0638471754009
0.0638471754009
0.0638471754009
0.0638471754009
0.0638471754009
0.0638471754009
0.0638471754009
0.0638471754009
0.0638471754009
0.0638471754009
0.0638471754009
0.0638471754009
0.0638471754009
0.0638471754009
0.0638471754009
0.0638471754009
0.0638471754009
0.0638471754009
0.0638471754009
0.0638471754009
0.0638471754009
0.0638471754009
0.0638471754009
0.0638471754009
0.0638471754009
0.063847175401
0.0638471754026
0.063847175432
0.0638471759853
0.0638471864079
0.0638473811373
0.0638508996915
0.0639082655954
0.0646048242352
0.069579237009
0.0892877726274
0.136662601193
0.219765946322
0.341274913207
0.556647974347
0.0638471754009
0.0638471754009
0.0638471754009
0.0638471754009
0.0638471754009
0.0638471754009
0.0638471754009
0.0638471754009
0.0638471754009
0.0638471754009
0.0638471754009
0.0638471754009
0.0638471754009
0.0638471754009
0.0638471754009
0.0638471754009
0.0638471754009
0.0638471754009
0.0638471754009
0.0638471754009
0.0638471754009
0.0638471754009
0.0638471754009
0.0638471754009
0.0638471754009
0.0638471754009
0.0638471754009
0.0638471754009
0.0638471754009
0.0638471754009
0.0638471754009
0.0638471754009
0.0638471754009
0.0638471754009
0.0638471754009
0.0638471754009
0.0638471754009
0.0638471754009
0.0638471754009
0.0638471754009
0.0638471754009
0.0638471754009
0.0638471754009
0.0638471754009
0.0638471754009
0.063847175401
0.0638471754026
0.0638471754313
0.0638471759656
0.0638471859146
0.0638473697867
0.063850662323
0.0639040868013
0.0645567193733
0.0692867136518
0.0883379994546
0.134755474977
0.216972506608
0.338687584526
0.557932412981
0.0638471754009
0.0638471754009
0.0638471754009
0.0638471754009
0.0638471754009
0.0638471754009
0.0638471754009
0.0638471754009
0.0638471754009
0.0638471754009
0.0638471754009
0.0638471754009
0.0638471754009
0.0638471754009
0.0638471754009
0.0638471754009
0.0638471754009
0.0638471754009
0.0638471754009
0.0638471754009
0.0638471754009
0.0638471754009
0.0638471754009
0.0638471754009
0.0638471754009
0.0638471754009
0.0638471754009
0.0638471754009
0.0638471754009
0.0638471754009
0.0638471754009
0.0638471754009
0.0638471754009
0.0638471754009
0.0638471754009
0.0638471754009
0.0638471754009
0.0638471754009
0.0638471754009
0.0638471754009
0.0638471754009
0.0638471754009
0.0638471754009
0.0638471754009
0.0638471754009
0.063847175401
0.0638471754026
0.0638471754307
0.063847175946
0.0638471854265
0.0638473586581
0.0638504295281
0.0638999834996
0.0645088453462
0.0689898551375
0.0873559304404
0.132757289257
0.214012558852
0.335891956511
0.559194750014
0.0638471754009
0.0638471754009
0.0638471754009
0.0638471754009
0.0638471754009
0.0638471754009
0.0638471754009
0.0638471754009
0.0638471754009
0.0638471754009
0.0638471754009
0.0638471754009
0.0638471754009
0.0638471754009
0.0638471754009
0.0638471754009
0.0638471754009
0.0638471754009
0.0638471754009
0.0638471754009
0.0638471754009
0.0638471754009
0.0638471754009
0.0638471754009
0.0638471754009
0.0638471754009
0.0638471754009
0.0638471754009
0.0638471754009
0.0638471754009
0.0638471754009
0.0638471754009
0.0638471754009
0.0638471754009
0.0638471754009
0.0638471754009
0.0638471754009
0.0638471754009
0.0638471754009
0.0638471754009
0.0638471754009
0.0638471754009
0.0638471754009
0.0638471754009
0.0638471754009
0.063847175401
0.0638471754025
0.06384717543
0.063847175927
0.0638471849497
0.0638473477714
0.0638502029884
0.063895992119
0.0644616090654
0.0686908497615
0.0863464217346
0.130674356899
0.210890226054
0.332885054271
0.56042205842
0.0638471754009
0.0638471754009
0.0638471754009
0.0638471754009
0.0638471754009
0.0638471754009
0.0638471754009
0.0638471754009
0.0638471754009
0.0638471754009
0.0638471754009
0.0638471754009
0.0638471754009
0.0638471754009
0.0638471754009
0.0638471754009
0.0638471754009
0.0638471754009
0.0638471754009
0.0638471754009
0.0638471754009
0.0638471754009
0.0638471754009
0.0638471754009
0.0638471754009
0.0638471754009
0.0638471754009
0.0638471754009
0.0638471754009
0.0638471754009
0.0638471754009
0.0638471754009
0.0638471754009
0.0638471754009
0.0638471754009
0.0638471754009
0.0638471754009
0.0638471754009
0.0638471754009
0.0638471754009
0.0638471754009
0.0638471754009
0.0638471754009
0.0638471754009
0.0638471754009
0.063847175401
0.0638471754025
0.0638471754294
0.0638471759089
0.0638471844916
0.063847337306
0.0638499855582
0.0638921488241
0.064415477246
0.0683923796549
0.0853168736485
0.128517673187
0.207616585005
0.329667480913
0.561577556018
0.0638471754009
0.0638471754009
0.0638471754009
0.0638471754009
0.0638471754009
0.0638471754009
0.0638471754009
0.0638471754009
0.0638471754009
0.0638471754009
0.0638471754009
0.0638471754009
0.0638471754009
0.0638471754009
0.0638471754009
0.0638471754009
0.0638471754009
0.0638471754009
0.0638471754009
0.0638471754009
0.0638471754009
0.0638471754009
0.0638471754009
0.0638471754009
0.0638471754009
0.0638471754009
0.0638471754009
0.0638471754009
0.0638471754009
0.0638471754009
0.0638471754009
0.0638471754009
0.0638471754009
0.0638471754009
0.0638471754009
0.0638471754009
0.0638471754009
0.0638471754009
0.0638471754009
0.0638471754009
0.0638471754009
0.0638471754009
0.0638471754009
0.0638471754009
0.0638471754009
0.063847175401
0.0638471754025
0.0638471754289
0.0638471758917
0.0638471840506
0.0638473272446
0.0638497777069
0.0638884831071
0.064370854117
0.0680970097445
0.0842745147154
0.126297852244
0.204201714777
0.326236731412
0.562630257296
0.0638471754009
0.0638471754009
0.0638471754009
0.0638471754009
0.0638471754009
0.0638471754009
0.0638471754009
0.0638471754009
0.0638471754009
0.0638471754009
0.0638471754009
0.0638471754009
0.0638471754009
0.0638471754009
0.0638471754009
0.0638471754009
0.0638471754009
0.0638471754009
0.0638471754009
0.0638471754009
0.0638471754009
0.0638471754009
0.0638471754009
0.0638471754009
0.0638471754009
0.0638471754009
0.0638471754009
0.0638471754009
0.0638471754009
0.0638471754009
0.0638471754009
0.0638471754009
0.0638471754009
0.0638471754009
0.0638471754009
0.0638471754009
0.0638471754009
0.0638471754009
0.0638471754009
0.0638471754009
0.0638471754009
0.0638471754009
0.0638471754009
0.0638471754009
0.0638471754009
0.063847175401
0.0638471754025
0.0638471754284
0.0638471758758
0.0638471836377
0.0638473177923
0.0638495819705
0.0638850201544
0.0643280895299
0.067807232954
0.0832274358567
0.124028183556
0.200660969097
0.322593916975
0.563533022615
0.0638471754009
0.0638471754009
0.0638471754009
0.0638471754009
0.0638471754009
0.0638471754009
0.0638471754009
0.0638471754009
0.0638471754009
0.0638471754009
0.0638471754009
0.0638471754009
0.0638471754009
0.0638471754009
0.0638471754009
0.0638471754009
0.0638471754009
0.0638471754009
0.0638471754009
0.0638471754009
0.0638471754009
0.0638471754009
0.0638471754009
0.0638471754009
0.0638471754009
0.0638471754009
0.0638471754009
0.0638471754009
0.0638471754009
0.0638471754009
0.0638471754009
0.0638471754009
0.0638471754009
0.0638471754009
0.0638471754009
0.0638471754009
0.0638471754009
0.0638471754009
0.0638471754009
0.0638471754009
0.0638471754009
0.0638471754009
0.0638471754009
0.0638471754009
0.0638471754009
0.063847175401
0.0638471754025
0.0638471754281
0.0638471758614
0.0638471832527
0.0638473089095
0.0638493992243
0.0638817877553
0.0642875663794
0.0675258576963
0.0821848659005
0.12172485376
0.197010690554
0.318739265121
0.564220746766
0.0638471754009
0.0638471754009
0.0638471754009
0.0638471754009
0.0638471754009
0.0638471754009
0.0638471754009
0.0638471754009
0.0638471754009
0.0638471754009
0.0638471754009
0.0638471754009
0.0638471754009
0.0638471754009
0.0638471754009
0.0638471754009
0.0638471754009
0.0638471754009
0.0638471754009
0.0638471754009
0.0638471754009
0.0638471754009
0.0638471754009
0.0638471754009
0.0638471754009
0.0638471754009
0.0638471754009
0.0638471754009
0.0638471754009
0.0638471754009
0.0638471754009
0.0638471754009
0.0638471754009
0.0638471754009
0.0638471754009
0.0638471754009
0.0638471754009
0.0638471754009
0.0638471754009
0.0638471754009
0.0638471754009
0.0638471754009
0.0638471754009
0.0638471754009
0.0638471754009
0.063847175401
0.0638471754026
0.0638471754278
0.0638471758489
0.0638471829021
0.0638473007587
0.0638492306686
0.0638787961195
0.0642495078073
0.0672549087655
0.0811544535199
0.119400738909
0.193266703899
0.314674871975
0.564640968217
0.0638471754009
0.0638471754009
0.0638471754009
0.0638471754009
0.0638471754009
0.0638471754009
0.0638471754009
0.0638471754009
0.0638471754009
0.0638471754009
0.0638471754009
0.0638471754009
0.0638471754009
0.0638471754009
0.0638471754009
0.0638471754009
0.0638471754009
0.0638471754009
0.0638471754009
0.0638471754009
0.0638471754009
0.0638471754009
0.0638471754009
0.0638471754009
0.0638471754009
0.0638471754009
0.0638471754009
0.0638471754009
0.0638471754009
0.0638471754009
0.0638471754009
0.0638471754009
0.0638471754009
0.0638471754009
0.0638471754009
0.0638471754009
0.0638471754009
0.0638471754009
0.0638471754009
0.0638471754009
0.0638471754009
0.0638471754009
0.0638471754009
0.0638471754009
0.0638471754009
0.063847175401
0.0638471754026
0.0638471754277
0.0638471758379
0.0638471825826
0.0638472932631
0.0638490751561
0.0638760345917
0.064213920735
0.0669951310912
0.0801399017521
0.117062781401
0.189438275398
0.310404660369
0.564776669457
0.0638471754009
0.0638471754009
0.0638471754009
0.0638471754009
0.0638471754009
0.0638471754009
0.0638471754009
0.0638471754009
0.0638471754009
0.0638471754009
0.0638471754009
0.0638471754009
0.0638471754009
0.0638471754009
0.0638471754009
0.0638471754009
0.0638471754009
0.0638471754009
0.0638471754009
0.0638471754009
0.0638471754009
0.0638471754009
0.0638471754009
0.0638471754009
0.0638471754009
0.0638471754009
0.0638471754009
0.0638471754009
0.0638471754009
0.0638471754009
0.0638471754009
0.0638471754009
0.0638471754009
0.0638471754009
0.0638471754009
0.0638471754009
0.0638471754009
0.0638471754009
0.0638471754009
0.0638471754009
0.0638471754009
0.0638471754009
0.0638471754009
0.0638471754009
0.0638471754009
0.063847175401
0.0638471754026
0.0638471754276
0.0638471758288
0.0638471822948
0.0638472863477
0.0638489322276
0.0638734964625
0.0641807750374
0.0667469377599
0.0791439775519
0.114716428266
0.185532324053
0.305935257477
0.564620471609
0.0638471754009
0.0638471754009
0.0638471754009
0.0638471754009
0.0638471754009
0.0638471754009
0.0638471754009
0.0638471754009
0.0638471754009
0.0638471754009
0.0638471754009
0.0638471754009
0.0638471754009
0.0638471754009
0.0638471754009
0.0638471754009
0.0638471754009
0.0638471754009
0.0638471754009
0.0638471754009
0.0638471754009
0.0638471754009
0.0638471754009
0.0638471754009
0.0638471754009
0.0638471754009
0.0638471754009
0.0638471754009
0.0638471754009
0.0638471754009
0.0638471754009
0.0638471754009
0.0638471754009
0.0638471754009
0.0638471754009
0.0638471754009
0.0638471754009
0.0638471754009
0.0638471754009
0.0638471754009
0.0638471754009
0.0638471754009
0.0638471754009
0.0638471754009
0.0638471754009
0.063847175401
0.0638471754027
0.0638471754277
0.0638471758215
0.0638471820381
0.0638472800724
0.0638488017881
0.063871172198
0.0641500475701
0.06651103662
0.0781708773975
0.112370197229
0.181560623616
0.301272310717
0.564144991242
0.0638471754009
0.0638471754009
0.0638471754009
0.0638471754009
0.0638471754009
0.0638471754009
0.0638471754009
0.0638471754009
0.0638471754009
0.0638471754009
0.0638471754009
0.0638471754009
0.0638471754009
0.0638471754009
0.0638471754009
0.0638471754009
0.0638471754009
0.0638471754009
0.0638471754009
0.0638471754009
0.0638471754009
0.0638471754009
0.0638471754009
0.0638471754009
0.0638471754009
0.0638471754009
0.0638471754009
0.0638471754009
0.0638471754009
0.0638471754009
0.0638471754009
0.0638471754009
0.0638471754009
0.0638471754009
0.0638471754009
0.0638471754009
0.0638471754009
0.0638471754009
0.0638471754009
0.0638471754009
0.0638471754009
0.0638471754009
0.0638471754009
0.0638471754009
0.0638471754009
0.0638471754011
0.0638471754027
0.0638471754279
0.0638471758161
0.0638471818121
0.0638472743791
0.0638486828464
0.0638690570152
0.0641217690953
0.0662883506692
0.077225763158
0.110035148289
0.177536846281
0.296420519053
0.563308129119
0.0638471754009
0.0638471754009
0.0638471754009
0.0638471754009
0.0638471754009
0.0638471754009
0.0638471754009
0.0638471754009
0.0638471754009
0.0638471754009
0.0638471754009
0.0638471754009
0.0638471754009
0.0638471754009
0.0638471754009
0.0638471754009
0.0638471754009
0.0638471754009
0.0638471754009
0.0638471754009
0.0638471754009
0.0638471754009
0.0638471754009
0.0638471754009
0.0638471754009
0.0638471754009
0.0638471754009
0.0638471754009
0.0638471754009
0.0638471754009
0.0638471754009
0.0638471754009
0.0638471754009
0.0638471754009
0.0638471754009
0.0638471754009
0.0638471754009
0.0638471754009
0.0638471754009
0.0638471754009
0.0638471754009
0.0638471754009
0.0638471754009
0.0638471754009
0.0638471754009
0.0638471754011
0.0638471754028
0.0638471754283
0.0638471758128
0.0638471816206
0.0638472692999
0.0638485755376
0.0638671440969
0.0640959222476
0.06607960165
0.0763137543901
0.107723305351
0.17347931105
0.291390633219
0.562053678264
0.0638471754009
0.0638471754009
0.0638471754009
0.0638471754009
0.0638471754009
0.0638471754009
0.0638471754009
0.0638471754009
0.0638471754009
0.0638471754009
0.0638471754009
0.0638471754009
0.0638471754009
0.0638471754009
0.0638471754009
0.0638471754009
0.0638471754009
0.0638471754009
0.0638471754009
0.0638471754009
0.0638471754009
0.0638471754009
0.0638471754009
0.0638471754009
0.0638471754009
0.0638471754009
0.0638471754009
0.0638471754009
0.0638471754009
0.0638471754009
0.0638471754009
0.0638471754009
0.0638471754009
0.0638471754009
0.0638471754009
0.0638471754009
0.0638471754009
0.0638471754009
0.0638471754009
0.0638471754009
0.0638471754009
0.0638471754009
0.0638471754009
0.0638471754009
0.0638471754009
0.0638471754011
0.0638471754029
0.0638471754289
0.0638471758119
0.0638471814638
0.0638472648277
0.063848479545
0.063865427544
0.0640724674993
0.0658853121228
0.0754394336752
0.105446901145
0.169404529914
0.286190831025
0.560332207566
0.0638471754009
0.0638471754009
0.0638471754009
0.0638471754009
0.0638471754009
0.0638471754009
0.0638471754009
0.0638471754009
0.0638471754009
0.0638471754009
0.0638471754009
0.0638471754009
0.0638471754009
0.0638471754009
0.0638471754009
0.0638471754009
0.0638471754009
0.0638471754009
0.0638471754009
0.0638471754009
0.0638471754009
0.0638471754009
0.0638471754009
0.0638471754009
0.0638471754009
0.0638471754009
0.0638471754009
0.0638471754009
0.0638471754009
0.0638471754009
0.0638471754009
0.0638471754009
0.0638471754009
0.0638471754009
0.0638471754009
0.0638471754009
0.0638471754009
0.0638471754009
0.0638471754009
0.0638471754009
0.0638471754009
0.0638471754009
0.0638471754009
0.0638471754009
0.0638471754009
0.0638471754011
0.063847175403
0.0638471754297
0.0638471758137
0.0638471813451
0.063847260985
0.0638483947254
0.063863896546
0.0640513147872
0.0657056559677
0.0746062453724
0.103216363653
0.165329125907
0.280834373503
0.558094515713
0.0638471754009
0.0638471754009
0.0638471754009
0.0638471754009
0.0638471754009
0.0638471754009
0.0638471754009
0.0638471754009
0.0638471754009
0.0638471754009
0.0638471754009
0.0638471754009
0.0638471754009
0.0638471754009
0.0638471754009
0.0638471754009
0.0638471754009
0.0638471754009
0.0638471754009
0.0638471754009
0.0638471754009
0.0638471754009
0.0638471754009
0.0638471754009
0.0638471754009
0.0638471754009
0.0638471754009
0.0638471754009
0.0638471754009
0.0638471754009
0.0638471754009
0.0638471754009
0.0638471754009
0.0638471754009
0.0638471754009
0.0638471754009
0.0638471754009
0.0638471754009
0.0638471754009
0.0638471754009
0.0638471754009
0.0638471754009
0.0638471754009
0.0638471754009
0.063847175401
0.0638471754011
0.0638471754031
0.0638471754307
0.0638471758183
0.063847181264
0.0638472577311
0.0638483201701
0.0638625393287
0.0640323564973
0.0655405470141
0.0738167663444
0.101041139088
0.16126999861
0.275334033312
0.55529488679
0.0638471754009
0.0638471754009
0.0638471754009
0.0638471754009
0.0638471754009
0.0638471754009
0.0638471754009
0.0638471754009
0.0638471754009
0.0638471754009
0.0638471754009
0.0638471754009
0.0638471754009
0.0638471754009
0.0638471754009
0.0638471754009
0.0638471754009
0.0638471754009
0.0638471754009
0.0638471754009
0.0638471754009
0.0638471754009
0.0638471754009
0.0638471754009
0.0638471754009
0.0638471754009
0.0638471754009
0.0638471754009
0.0638471754009
0.0638471754009
0.0638471754009
0.0638471754009