/*--------------------------------*- C++ -*----------------------------------*\
| =========                 |                                                 |
| \\      /  F ield         | foam-extend: Open Source CFD                    |
|  \\    /   O peration     | Version:     4.1                                |
|   \\  /    A nd           | Web:         http://www.foam-extend.org         |
|    \\/     M anipulation  |                                                 |
\*---------------------------------------------------------------------------*/
FoamFile
{
    version     2.0;
    format      ascii;
    class       volVectorField;
    location    "5e-05";
    object      U;
}
// * * * * * * * * * * * * * * * * * * * * * * * * * * * * * * * * * * * * * //

dimensions      [0 1 -1 0 0 0 0];

internalField   nonuniform List<vector> 
4200
(
(3400 -3.97493623074e-10 -5.80846883067e-14)
(3400 -3.96543345707e-10 -3.59664555533e-14)
(3400 -3.99672130416e-10 1.90792066897e-14)
(3400 -4.02397621687e-10 1.8773438351e-14)
(3400 -4.08155549843e-10 2.61732613724e-15)
(3400 -4.15592843368e-10 2.04518616254e-16)
(3400 -4.24572995383e-10 -9.61952674092e-16)
(3400 -4.35858726902e-10 4.79356946283e-16)
(3400 -4.48650959945e-10 1.80570903811e-15)
(3400 -4.60426104913e-10 8.79632387902e-16)
(3400 -4.66705099086e-10 -1.76940145393e-16)
(3400 -4.69443740528e-10 -3.31362060348e-16)
(3400 -4.68637258856e-10 -7.71828836706e-16)
(3400 -4.69455379202e-10 -4.49571255422e-16)
(3400 -4.66836755983e-10 -3.71403152983e-16)
(3400 -4.66314701579e-10 2.13384973362e-16)
(3400 -4.69772344615e-10 6.25934086402e-14)
(3400 -4.74263077158e-10 4.72555669385e-14)
(3400 -4.80467209585e-10 1.07825394016e-13)
(3400 -4.85380226006e-10 3.87539416993e-14)
(3400 -4.95752583892e-10 1.37501356546e-14)
(3400 -5.06885511139e-10 -6.21523728537e-14)
(3400 -5.15877724526e-10 -1.32676604981e-13)
(3400 -5.22811971703e-10 -1.97861359129e-13)
(3400 -5.29447271876e-10 -1.76498588906e-13)
(3400 -5.36491237429e-10 -1.49090035824e-13)
(3400 -5.4356952069e-10 -1.2065825258e-13)
(3400 -5.48453031517e-10 -4.32992749485e-14)
(3400 -5.55230957386e-10 -2.01632272223e-14)
(3400 -5.61687085905e-10 -9.35207182404e-14)
(3400 -5.65315744186e-10 -6.78995563959e-14)
(3400 -5.67695539792e-10 -4.00070577015e-14)
(3400 -5.70393216619e-10 -9.92077656864e-15)
(3400 -5.76284419043e-10 7.21671979925e-14)
(3400 -5.824873992e-10 1.49298065607e-13)
(3400 -5.90016254929e-10 1.30900906413e-13)
(3400 -5.96814324853e-10 9.9692024427e-14)
(3400 -6.02009021044e-10 6.59710050108e-14)
(3400 -6.07735122964e-10 -1.64356237158e-14)
(3400 -6.09616641291e-10 6.57411994952e-14)
(3400 -6.09951187477e-10 3.55054292435e-14)
(3400 -6.10389010355e-10 5.65724517393e-15)
(3400 -6.14072474031e-10 1.62494265759e-15)
(3400 -6.21991500277e-10 3.28446731247e-16)
(3400 -6.33079306477e-10 -7.74436828485e-17)
(3400 -6.39895795036e-10 -6.7617317517e-16)
(3399.99999999 -5.29648207366e-10 -1.25508924938e-13)
(3399.9999998 2.01180037833e-09 -8.30177965322e-13)
(3399.99999599 5.3990976406e-08 -2.13348419148e-11)
(3399.99991787 1.11842791218e-06 -5.72768288278e-10)
(3399.99830671 2.30924385198e-05 -1.39638375323e-08)
(3399.96492058 0.000479822774606 -2.48350179186e-07)
(3399.27384619 0.0100565410367 -1.88544838099e-06)
(3386.37399787 0.195850493208 1.73529829055e-06)
(3247.25521956 2.45430765596 1.85771088501e-05)
(2668.10358991 13.9223460652 -0.000265572130106)
(1708.04799663 36.9621280687 -0.0012880617301)
(794.978598187 62.7119289714 -0.00285108123357)
(211.869591203 81.8086628267 -0.00449914836297)
(315.197603769 84.8910811044 -0.0052249963068)
(3400 -2.25106923119e-10 3.10983720475e-14)
(3400 -2.24958006307e-10 3.07309606548e-14)
(3400 -2.25180101564e-10 1.24486275186e-14)
(3400 -2.26728444591e-10 1.16349278784e-14)
(3400 -2.29360696923e-10 9.37095912541e-15)
(3400 -2.32978101261e-10 2.53855549311e-15)
(3400 -2.3473725449e-10 -1.63486336446e-14)
(3400 -2.38533556171e-10 -1.26835679081e-14)
(3400 -2.42289220943e-10 -6.01190200685e-15)
(3400 -2.45521129072e-10 -4.66015616198e-16)
(3400 -2.49373833545e-10 1.85834403612e-14)
(3400 -2.52527672209e-10 1.20470672085e-14)
(3400 -2.5467928129e-10 5.84999307167e-15)
(3400 -2.55118014282e-10 -1.54523067051e-17)
(3400 -2.56030613116e-10 -1.93127867487e-14)
(3400 -2.56927158071e-10 -1.33243923415e-14)
(3400 -2.57583702718e-10 -5.17310734104e-15)
(3400 -2.57478264821e-10 -2.63447707018e-16)
(3400 -2.58109402051e-10 -1.96681245545e-14)
(3400 -2.60335792885e-10 -1.293868185e-14)
(3400 -2.61574085144e-10 -4.65381765078e-15)
(3400 -2.63737411916e-10 -2.45427162583e-16)
(3400 -2.66847825692e-10 -1.21293528992e-16)
(3400 -2.70848702568e-10 -5.15127725647e-17)
(3400 -2.74534763822e-10 -4.66335094934e-17)
(3400 -2.78248563621e-10 -2.09243311852e-16)
(3400 -2.8115037763e-10 1.47294352439e-14)
(3400 -2.86766400901e-10 3.85904470699e-14)
(3400 -2.94593027247e-10 3.68338996404e-14)
(3400 -3.02477580485e-10 2.62599447753e-14)
(3400 -3.10684817714e-10 1.73689967432e-14)
(3400 -3.17847334154e-10 8.02060971091e-15)
(3400 -3.23115670117e-10 2.7976579213e-16)
(3400 -3.28140978121e-10 -1.32593680556e-16)
(3400 -3.33368266944e-10 -2.34706266405e-14)
(3400 -3.3948155213e-10 5.07619133501e-15)
(3400 -3.45685380268e-10 3.77747617285e-15)
(3400 -3.4735051062e-10 -2.39522977544e-14)
(3400 -3.46617520331e-10 -1.78527259917e-14)
(3400 -3.44552541386e-10 -4.32512260475e-14)
(3400 -3.41469409594e-10 -3.17395095133e-14)
(3400 -3.36619009226e-10 -2.17868360083e-14)
(3400 -3.32168595206e-10 -9.10562231209e-15)
(3400 -3.28468782339e-10 2.04784348439e-14)
(3400 -3.25785580922e-10 1.88099318013e-14)
(3400 -3.08811489499e-10 4.961883831e-14)
(3399.99999999 5.08844039883e-11 3.81178987957e-14)
(3399.9999998 7.45192783201e-09 5.60125141691e-14)
(3399.99999597 1.58575251043e-07 1.35923060385e-13)
(3399.99991727 3.26382140028e-06 -1.10679124769e-11)
(3399.99829069 6.74892632634e-05 -5.60566277388e-10)
(3399.96451194 0.001403021256 -1.54936993056e-08)
(3399.26334094 0.0292172012826 -2.05113199104e-07)
(3386.15675197 0.553662566133 -1.50833876292e-06)
(3245.16449749 6.335576789 -2.05153608252e-05)
(2661.39166725 31.2634817158 -0.000176903886968)
(1698.85296972 74.2222006059 -0.000599504590193)
(787.387173445 116.736746852 -0.00120546520651)
(208.850047155 145.102110292 -0.00179987313287)
(316.489910106 143.23369794 -0.00211558447307)
(3400 -1.14025001393e-10 -2.47893538761e-14)
(3400 -1.09937076527e-10 -2.67396097035e-14)
(3400 -1.04379920518e-10 -2.34241390129e-14)
(3400 -9.92317692136e-11 -1.94149027571e-14)
(3400 -9.3687782965e-11 -2.97500920431e-14)
(3400 -9.07116154673e-11 -1.70604340733e-14)
(3400 -8.82247862055e-11 -1.38221093392e-14)
(3400 -8.76486679447e-11 -4.68192415059e-15)
(3400 -8.896410974e-11 -5.24162623917e-15)
(3400 -8.97703209375e-11 -2.03868089204e-15)
(3400 -9.21842501611e-11 1.00271761862e-14)
(3400 -9.44666609373e-11 9.93778043255e-15)
(3400 -9.6898985132e-11 5.96210861909e-15)
(3400 -9.76204340843e-11 -6.68763338545e-15)
(3400 -9.86956822845e-11 4.86600894528e-15)
(3400 -9.99918258896e-11 1.2781965523e-15)
(3400 -9.90072762947e-11 -5.92454506887e-17)
(3400 -9.80765053577e-11 -9.76391055815e-17)
(3400 -9.80742093615e-11 5.71035517803e-17)
(3400 -9.96873783744e-11 9.44308455965e-17)
(3400 -1.01375024727e-10 2.06291378452e-17)
(3400 -1.01317127816e-10 -1.40486819381e-14)
(3400 -1.0310084894e-10 -9.27500854407e-15)
(3400 -1.05754356288e-10 -3.16275935496e-15)
(3400 -1.07928670196e-10 1.01837426094e-14)
(3400 -1.09182011495e-10 7.70451665076e-15)
(3400 -1.10034700433e-10 3.56392479212e-15)
(3400 -1.12302383673e-10 2.87045819545e-16)
(3400 -1.16041226617e-10 1.4294006221e-16)
(3400 -1.20487550111e-10 1.11002829062e-16)
(3400 -1.24041945729e-10 1.5665796164e-14)
(3400 -1.29115039839e-10 1.01144792255e-14)
(3400 -1.33375746008e-10 -6.74894500669e-15)
(3400 -1.36571718562e-10 -1.94996488395e-14)
(3400 -1.39358050098e-10 -3.89767504723e-15)
(3400 -1.40551482096e-10 -1.98831819576e-14)
(3400 -1.44658986409e-10 -1.8547207842e-15)
(3400 -1.50299970983e-10 1.41052881648e-14)
(3400 -1.58378428844e-10 1.48089096566e-14)
(3400 -1.66062816037e-10 3.00773568804e-14)
(3400 -1.71337069286e-10 2.34317867459e-14)
(3400 -1.73374182996e-10 1.6269446465e-14)
(3400 -1.74395124059e-10 9.92079205079e-15)
(3400 -1.73990737722e-10 3.99997006622e-15)
(3400 -1.68936737912e-10 3.10265006468e-16)
(3400 -1.32873444572e-10 1.90197229045e-16)
(3399.99999999 4.80562897045e-10 7.20170639688e-15)
(3399.9999998 1.27282461027e-08 2.20460921009e-13)
(3399.999996 2.62002165855e-07 5.13643898485e-12)
(3399.999918 5.3800510321e-06 1.1473546693e-10)
(3399.99830707 0.000111198760302 2.35867127669e-09)
(3399.96487675 0.00231058146175 3.7873354542e-08)
(3399.27151339 0.0480420366999 3.32797807067e-07)
(3386.30382009 0.908228601456 9.63051263939e-07)
(3246.44770214 10.3122489329 -4.85017692685e-06)
(2665.4455821 50.0334228853 -5.75736041355e-05)
(1705.33303895 116.625424059 -0.000198018569799)
(795.424371982 180.615386171 -0.00040010669909)
(218.065801563 221.898297799 -0.000602888968911)
(326.657662105 216.129758128 -0.000720121524717)
(3400 -5.71304219768e-11 2.07403827099e-14)
(3400 -5.8499395925e-11 1.6827894676e-14)
(3400 -5.8411627528e-11 1.35813209854e-14)
(3400 -5.67817273864e-11 3.97713346576e-15)
(3400 -5.28071695337e-11 5.27142789832e-16)
(3400 -4.84372363783e-11 -1.73572831156e-15)
(3400 -4.45736135279e-11 -1.2094580906e-16)
(3400 -4.06597332321e-11 -8.3428782606e-15)
(3400 -3.88187826838e-11 -6.25562019861e-15)
(3400 -3.89952350207e-11 -6.68011406594e-15)
(3400 -4.06057263492e-11 -3.62715982109e-15)
(3400 -4.3969201473e-11 -1.58340670551e-16)
(3400 -4.85916136812e-11 8.30942548905e-15)
(3400 -5.46165533985e-11 5.19415614417e-15)
(3400 -5.95925582907e-11 3.00528813397e-15)
(3400 -6.41157212559e-11 1.17527984438e-14)
(3400 -6.73500664179e-11 2.10139394259e-14)
(3400 -6.99258016709e-11 1.6774965102e-14)
(3400 -7.12212777586e-11 1.28203231984e-14)
(3400 -7.2985419741e-11 9.11248393173e-15)
(3400 -7.6823358523e-11 5.40829534569e-15)
(3400 -8.05521630445e-11 1.64749121189e-15)
(3400 -8.29068283697e-11 1.14135903679e-14)
(3400 -8.47427367142e-11 8.34309201164e-15)
(3400 -8.55462438848e-11 5.07032728376e-15)
(3400 -8.48695350666e-11 1.47321055134e-14)
(3400 -8.36505189809e-11 3.94534060252e-15)
(3400 -8.03149925558e-11 8.49841119516e-16)
(3400 -7.65497669567e-11 1.18147429927e-14)
(3400 -7.44418086409e-11 2.16617944061e-14)
(3400 -7.37218901225e-11 1.85845410251e-14)
(3400 -7.39529904466e-11 2.82799449344e-14)
(3400 -7.57292465961e-11 2.42378435629e-14)
(3400 -7.84886265451e-11 1.89548851332e-14)
(3400 -8.22979435978e-11 1.42219591076e-14)
(3400 -8.5307627418e-11 9.10185073532e-15)
(3400 -8.5580595348e-11 4.06775516124e-15)
(3400 -8.5497883654e-11 4.08648426582e-16)
(3400 -8.66381866732e-11 8.27841417647e-17)
(3400 -8.99168456044e-11 3.47321774043e-17)
(3400 -9.31858159539e-11 6.63259551487e-18)
(3400 -9.55433728853e-11 -2.14664110933e-18)
(3400 -9.8458163187e-11 2.75869163277e-17)
(3400 -1.0148862361e-10 5.46844915721e-17)
(3400 -1.01679096843e-10 5.21293593299e-17)
(3400 -5.96587910454e-11 1.65597432687e-16)
(3399.99999999 7.86776253889e-10 5.12619573682e-15)
(3399.99999981 1.77482460336e-08 1.63283184626e-13)
(3399.99999605 3.62340985044e-07 3.9440618144e-12)
(3399.9999192 7.41992228483e-06 8.93771330289e-11)
(3399.9983359 0.000152976401804 1.8448526985e-09)
(3399.96554812 0.00317162569294 3.02080630822e-08)
(3399.28702857 0.0657745640141 2.75715598459e-07)
(3386.59697448 1.24159396436 9.77306674409e-07)
(3249.10395743 14.1007247925 -1.38174910884e-07)
(2673.98807663 68.3699650548 -1.49871777831e-05)
(1718.72952107 158.970463378 -5.50069081907e-05)
(811.105960638 245.367457153 -0.000113304935584)
(234.430745891 300.459133695 -0.0001732758132)
(343.270071265 291.122875905 -0.000209244111571)
(3400 -4.05634116769e-11 -2.15516594822e-15)
(3400 -4.35199349299e-11 2.32764411528e-16)
(3400 -4.50577711639e-11 4.04155331036e-16)
(3400 -4.60772328879e-11 4.00882862012e-17)
(3400 -4.37395158942e-11 -1.33245599882e-18)
(3400 -3.91101949996e-11 -6.60841457568e-15)
(3400 -3.45077776806e-11 -1.22504867373e-14)
(3400 -2.85777933106e-11 -4.88528269221e-15)
(3400 -2.40604797857e-11 -3.12062071842e-15)
(3400 -2.22239815978e-11 -2.36869944369e-15)
(3400 -2.27776675348e-11 -8.10247075437e-17)
(3400 -2.37575497854e-11 -5.19888599789e-15)
(3400 -2.45838555001e-11 -4.12851498303e-15)
(3400 -2.78061758903e-11 -1.97936223407e-15)
(3400 -3.08986975983e-11 -7.91074046161e-15)
(3400 -3.23982421966e-11 -6.7766838155e-15)
(3400 -3.44193150972e-11 -3.40442964511e-15)
(3400 -3.63314746648e-11 -9.96629028069e-15)
(3400 -3.83840718044e-11 -7.81060285513e-15)
(3400 -3.96463522468e-11 -4.20191904645e-15)
(3400 -4.08879977244e-11 -1.50005955115e-15)
(3400 -4.43750888044e-11 -6.94896151e-17)
(3400 -4.75318863254e-11 9.93518586055e-18)
(3400 -4.94551430909e-11 6.27334689112e-15)
(3400 -5.1196306354e-11 4.67726680687e-15)
(3400 -5.36329321037e-11 2.45933380235e-15)
(3400 -5.42992594439e-11 9.13699647479e-16)
(3400 -5.50569217948e-11 3.95841175874e-17)
(3400 -5.45616388028e-11 -1.96703795304e-17)
(3400 -5.33119160542e-11 7.75926085595e-15)
(3400 -5.37850999404e-11 5.46517645023e-15)
(3400 -5.408082857e-11 3.54139403417e-15)
(3400 -5.36973555165e-11 1.2361596804e-14)
(3400 -5.37642105632e-11 9.5872221431e-15)
(3400 -5.43381078428e-11 6.6042695579e-15)
(3400 -5.61961461161e-11 3.51318754778e-15)
(3400 -5.53622539431e-11 5.89715284802e-16)
(3400 -5.36784811565e-11 4.81602627443e-17)
(3400 -4.78853472778e-11 4.34948822297e-18)
(3400 -4.22631534905e-11 8.8409014594e-15)
(3400 -3.98966853513e-11 5.87044655847e-15)
(3400 -4.00408739051e-11 -4.45961171164e-15)
(3400 -4.01336030217e-11 -3.23378354216e-15)
(3400 -4.19207187264e-11 -9.9510166212e-16)
(3400 -4.24389327186e-11 -1.07916930129e-14)
(3400 9.69666167041e-12 -2.04303597348e-14)
(3399.99999999 1.08198632977e-09 -1.72056385595e-14)
(3399.99999981 2.2621841781e-08 1.07895956782e-13)
(3399.99999611 4.58750078547e-07 2.91672490917e-12)
(3399.99992078 9.36345245386e-06 6.63458889159e-11)
(3399.99837388 0.000192388309774 1.36520270228e-09)
(3399.96644631 0.00397493983469 2.24478125633e-08)
(3399.30755967 0.0821830800675 2.07323400331e-07)
(3386.98709029 1.54970481511 7.78192125763e-07)
(3252.67970947 17.6636140464 8.33578966136e-07)
(2685.63084663 86.0640716725 -3.13270360228e-06)
(1737.06598428 200.60550635 -1.35816158686e-05)
(832.500428117 309.740161531 -2.85988472747e-05)
(256.56400482 379.069479547 -4.4313976658e-05)
(365.509894576 366.332223442 -5.38597279455e-05)
(3400 -1.06800067431e-11 -3.28216130905e-16)
(3400 -1.57207931182e-11 4.53857575172e-15)
(3400 -1.95962884906e-11 2.47607750646e-15)
(3400 -2.3499559767e-11 -2.0971484033e-15)
(3400 -2.65388600306e-11 -6.12296870013e-15)
(3400 -2.7959557621e-11 -9.89504846396e-16)
(3400 -2.79695029652e-11 2.36896740012e-16)
(3400 -2.49901609949e-11 -5.46682390978e-17)
(3400 -1.99517893776e-11 -5.59019530077e-15)
(3400 -1.60630287118e-11 -1.06084407629e-14)
(3400 -1.3611823057e-11 -8.97750485248e-15)
(3400 -1.35353673824e-11 -6.37047450757e-15)
(3400 -1.22263020111e-11 -3.81906983036e-15)
(3400 -1.09202907201e-11 -2.47128030005e-15)
(3400 -1.00705269516e-11 -8.15826611271e-16)
(3400 -8.61981681427e-12 -4.93842260505e-17)
(3400 -7.27876644792e-12 4.35750162806e-18)
(3400 -5.22247762322e-12 -5.9610634569e-18)
(3400 -3.72514969347e-12 -9.51042266082e-18)
(3400 -2.29096632783e-12 -3.20241480387e-18)
(3400 -1.59117011881e-13 4.58809631078e-15)
(3400 2.09604489165e-12 2.69192079733e-15)
(3400 2.12235975811e-12 1.27444447544e-15)
(3400 1.57397086814e-13 8.72677935952e-17)
(3400 -1.29414681225e-12 2.08051523049e-17)
(3400 -6.12908559412e-12 6.99362629383e-18)
(3400 -1.01588720647e-11 6.26091774843e-15)
(3400 -1.49112509657e-11 3.57622192502e-15)
(3400 -1.73331767209e-11 1.73386730649e-15)
(3400 -1.80530244889e-11 -4.14480463047e-15)
(3400 -1.85167812991e-11 -3.6953935987e-15)
(3400 -2.04081758824e-11 -1.04525336079e-14)
(3400 -2.3670614495e-11 -1.61092694463e-14)
(3400 -2.56147371338e-11 -8.88279926691e-15)
(3400 -2.7273837457e-11 -1.41823568175e-14)
(3400 -2.74718780685e-11 -5.77031186529e-15)
(3400 -2.71463424022e-11 -3.00319953672e-15)
(3400 -2.65704365276e-11 -2.73229222449e-16)
(3400 -2.69792290298e-11 -2.15809463518e-17)
(3400 -2.5294114878e-11 1.05964747469e-17)
(3400 -2.23609638719e-11 4.66207341761e-18)
(3400 -2.16503848427e-11 -4.04082940903e-18)
(3400 -2.09050999743e-11 1.50453147535e-18)
(3400 -2.04091026628e-11 5.74989096975e-18)
(3400 -1.87288034144e-11 7.71051804099e-15)
(3400 4.52244631489e-11 3.95605589313e-15)
(3399.99999999 1.34300850992e-09 4.27385390189e-15)
(3399.99999981 2.72690391704e-08 9.15864004194e-14)
(3399.9999962 5.49993209441e-07 2.18108969132e-12)
(3399.99992273 1.11807725979e-05 4.94365979298e-11)
(3399.99842042 0.000228808352039 1.01993169724e-09)
(3399.96753477 0.00470837099406 1.67979333702e-08)
(3399.33238238 0.0969889048073 1.56550674436e-07)
(3387.46060769 1.82720548804 6.02192773495e-07)
(3257.04606621 20.9488667988 8.69407499626e-07)
(2699.99493491 102.914597984 -3.09819881748e-07)
(1759.81103084 241.108903813 -3.0726249746e-06)
(859.120345339 373.079033303 -6.65778979715e-06)
(284.116593424 456.886947696 -1.03894257982e-05)
(393.131747346 440.845735084 -1.25654118555e-05)
(3400 1.57649194806e-11 1.07360966687e-14)
(3400 1.13683107318e-11 9.77806788965e-15)
(3400 5.91497975626e-12 7.92358345522e-15)
(3400 -6.21681797914e-13 5.18828659435e-15)
(3400 -7.84831091495e-12 3.71750115106e-15)
(3400 -1.5180949211e-11 1.18885898924e-15)
(3400 -2.29584484432e-11 4.1248223838e-16)
(3400 -2.97257678415e-11 4.9319429032e-15)
(3400 -3.19101158252e-11 -3.02484532359e-16)
(3400 -3.24014356605e-11 4.22265983575e-16)
(3400 -3.10030153423e-11 3.75640349629e-15)
(3400 -3.06561357624e-11 -4.6377826101e-15)
(3400 -3.16026245592e-11 -2.7802885428e-15)
(3400 -3.15724400295e-11 -7.19430779165e-15)
(3400 -3.12274070514e-11 -5.52585856306e-15)
(3400 -3.01447214713e-11 -3.62778304222e-15)
(3400 -2.92145049774e-11 -2.26201280891e-15)
(3400 -2.78257633888e-11 -1.30236870733e-16)
(3400 -2.59896230579e-11 6.64968129317e-15)
(3400 -2.35051772359e-11 6.43365461605e-15)
(3400 -2.12964972648e-11 1.31270467454e-15)
(3400 -1.88539798505e-11 2.06911192378e-15)
(3400 -1.58933078271e-11 5.56850213475e-16)
(3400 -1.34446874473e-11 -5.64545188438e-15)
(3400 -9.81146964096e-12 -1.04493770635e-14)
(3400 -5.12197865951e-12 -8.73568893848e-15)
(3400 -2.78568824975e-12 -6.20395549566e-15)
(3400 -2.10022307016e-12 -3.79160818283e-15)
(3400 -3.50392112672e-12 -1.58406779567e-15)
(3400 -3.35410241172e-12 -7.65728955398e-17)
(3400 -2.12890704407e-12 -1.64517836125e-17)
(3400 -2.80303131988e-13 -2.7144597621e-17)
(3400 -2.19933364187e-12 -2.26495574524e-17)
(3400 -6.22374759073e-12 5.38710444205e-15)
(3400 -1.07667493862e-11 3.26587649521e-15)
(3400 -1.37241935241e-11 1.51407820879e-15)
(3400 -1.72806219614e-11 7.42289382171e-15)
(3400 -1.79179334578e-11 5.41014442867e-15)
(3400 -1.97603714545e-11 1.16168139399e-14)
(3400 -2.33318113257e-11 1.73482029371e-14)
(3400 -2.33755135883e-11 1.51509236199e-14)
(3400 -2.29269174991e-11 2.00127399903e-14)
(3400 -2.24318152284e-11 1.57736099268e-14)
(3400 -1.8978625858e-11 1.22894878345e-14)
(3400 -1.16729394456e-11 5.83482273733e-15)
(3400 6.61476991141e-11 1.26580508667e-14)
(3399.99999999 1.58466663528e-09 1.27000426368e-14)
(3399.99999981 3.17091345875e-08 7.71545563442e-14)
(3399.99999629 6.3601368829e-07 1.63147099138e-12)
(3399.99992496 1.28610971039e-05 3.67369588236e-11)
(3399.99847319 0.00026196782351 7.588368119e-10)
(3399.96877133 0.00536466994199 1.25420308309e-08)
(3399.36074952 0.109991110266 1.1816383353e-07)
(3388.00041796 2.07046283216 4.62303868133e-07)
(3262.09652625 23.9128444061 7.21612970867e-07)
(2716.86184039 118.738665711 2.35698351451e-07)
(1786.7469534 280.132867983 -6.68912594224e-07)
(890.764882871 434.907379304 -1.52258712528e-06)
(316.940471127 533.34792358 -2.33954946169e-06)
(426.012149752 514.052185041 -2.702455482e-06)
(3400 8.82198863665e-12 -2.07270963157e-15)
(3400 1.16205999645e-11 -1.75277210029e-15)
(3400 1.1016477404e-11 -2.12574128198e-16)
(3400 8.0744412911e-12 3.61988527889e-15)
(3400 4.43578074694e-12 2.53137263704e-15)
(3400 1.81013908051e-12 1.16574437115e-15)
(3400 -1.68342248731e-12 -2.52096882454e-15)
(3400 -7.68855565905e-12 -1.5719450955e-15)
(3400 -1.21946023387e-11 -1.02637735074e-15)
(3400 -1.51617006634e-11 2.95963683388e-15)
(3400 -1.75726872308e-11 2.81618648912e-15)
(3400 -1.83779382254e-11 6.55677430027e-15)
(3400 -1.94736736854e-11 1.02602033466e-14)
(3400 -2.16836941784e-11 1.4103146815e-14)
(3400 -2.47944340232e-11 1.08094817006e-14)
(3400 -2.69539211183e-11 7.65438931152e-15)
(3400 -2.6539429735e-11 6.37161819504e-15)
(3400 -2.43555290016e-11 4.08224456317e-15)
(3400 -2.20526377442e-11 3.00498186198e-15)
(3400 -2.00798023819e-11 1.56219259396e-15)
(3400 -1.90190760171e-11 6.04838473464e-16)
(3400 -1.86466146412e-11 1.50211334611e-17)
(3400 -1.93746439121e-11 -4.86228708114e-15)
(3400 -2.11640793964e-11 -2.65494309013e-15)
(3400 -2.20380083149e-11 -1.99093380855e-15)
(3400 -1.95853545344e-11 -8.64781400711e-16)
(3400 -1.55931296467e-11 -5.6809781945e-17)
(3400 -1.1231646576e-11 -9.07091692399e-18)
(3400 -9.31499295403e-12 -3.42012137954e-19)
(3400 -8.66670080987e-12 3.46427810733e-18)
(3400 -6.36491975822e-12 -4.95412936978e-18)
(3400 -4.15487396703e-12 -5.39969704169e-18)
(3400 3.79366171058e-13 -3.95410695186e-18)
(3400 3.05632162668e-12 -4.57031188798e-15)
(3400 1.9789649349e-12 -2.75456860072e-15)
(3400 -3.51127771259e-13 -1.04345060037e-15)
(3400 -2.18259975535e-12 -6.51603106568e-15)
(3400 -3.15895073575e-12 -3.83499169012e-15)
(3400 -1.46048976502e-12 -7.76234578615e-15)
(3400 -3.24382892207e-12 -4.82045399298e-15)
(3400 -5.05453612259e-12 -2.36481404081e-15)
(3400 -6.75168213502e-12 -8.1305926937e-17)
(3400 -9.67680065022e-12 -4.74590212101e-15)
(3400 -1.24912980163e-11 1.22582513175e-15)
(3400 -8.5426918293e-12 -3.94433246358e-15)
(3400 7.85554479225e-11 -2.59300059854e-15)
(3399.99999999 1.80443855094e-09 2.53480752244e-15)
(3399.99999982 3.59148798724e-08 5.42260396001e-14)
(3399.99999639 7.16296801251e-07 1.20704790566e-12)
(3399.9999274 1.44011919083e-05 2.71582228887e-11)
(3399.99853177 0.000291538924938 5.58616295668e-10)
(3399.9701325 0.00593745331175 9.25782264501e-09)
(3399.39187437 0.121079090002 8.82131363023e-08)
(3388.59687655 2.27625502594 3.50456492672e-07)
(3267.75505075 26.5183783647 5.61798979387e-07)
(2736.06810466 133.377910801 2.7366684038e-07)
(1817.69261226 317.390203906 -1.70020663061e-07)
(927.299630298 494.844486799 -4.14065072952e-07)
(354.93576915 608.018549712 -5.80128059166e-07)
(464.032227425 585.4865269 -5.53364521554e-07)
(3400 -1.38783535749e-11 4.94090928593e-15)
(3400 -5.50723137569e-12 4.81626606306e-15)
(3400 1.61555355557e-12 3.77998447766e-15)
(3400 4.2980884044e-12 7.60304717968e-15)
(3400 4.47084906878e-12 1.03589013522e-14)
(3400 4.72405100255e-12 8.79557026562e-15)
(3400 5.65586073062e-12 6.96120232942e-15)
(3400 5.44361360887e-12 4.6261610384e-15)
(3400 4.38519163096e-12 3.85934216875e-15)
(3400 3.85737810647e-12 2.58284504952e-15)
(3400 2.80402289034e-12 1.235104296e-15)
(3400 2.04465890547e-12 -2.66662032862e-15)
(3400 7.75716927202e-13 -1.28707985293e-15)
(3400 -1.55506087056e-13 -4.70026250647e-17)
(3400 -1.90733485367e-12 -3.18419074476e-15)
(3400 -5.61646701476e-12 -6.33019475426e-15)
(3400 -1.02056119738e-11 -7.46338692107e-15)
(3400 -1.34945480854e-11 -5.33227778328e-15)
(3400 -1.43953751618e-11 -8.50362636546e-15)
(3400 -1.45595085439e-11 -6.70197189621e-15)
(3400 -1.40634302685e-11 -4.94641891579e-15)
(3400 -1.48469886773e-11 -3.18112311153e-15)
(3400 -1.44442720373e-11 -1.77244908351e-15)
(3400 -1.49464883354e-11 -4.00020479259e-16)
(3400 -1.73996754202e-11 -1.98437807538e-17)
(3400 -1.954803686e-11 -6.83020964782e-19)
(3400 -2.11180512707e-11 2.60309206084e-18)
(3400 -2.07210470262e-11 -2.12934152421e-18)
(3400 -1.97533818963e-11 -4.67084611102e-18)
(3400 -1.99687950475e-11 -6.9696910051e-19)
(3400 -1.9541824078e-11 2.5389611409e-18)
(3400 -1.79362840379e-11 1.60954026426e-18)
(3400 -1.54312067603e-11 -1.33262927359e-18)
(3400 -9.92671987845e-12 -7.88731058356e-18)
(3400 -5.27750495466e-12 -8.35621407173e-18)
(3400 -3.92390118447e-12 5.00209971882e-15)
(3400 -3.11501520405e-12 2.59925111146e-15)
(3400 -5.83645604577e-12 6.83459342898e-15)
(3400 -6.86627192879e-12 4.33094194314e-15)
(3400 -7.21226445279e-12 2.32679070674e-15)
(3400 -9.38908987709e-12 6.97391745422e-15)
(3400 -9.09348589737e-12 1.27842172695e-15)
(3400 -9.65385214063e-12 -1.28536832339e-15)
(3400 -1.16833259616e-11 -5.70151047938e-15)
(3400 -9.32073346827e-12 -3.96560674014e-15)
(3400 8.67857688667e-11 -1.7074311659e-15)
(3399.99999999 2.01250507812e-09 -6.08238976474e-15)
(3399.99999982 3.98411161931e-08 2.70841217703e-14)
(3399.9999965 7.89041207434e-07 8.52633254746e-13)
(3399.99993014 1.5758361637e-05 1.93416085001e-11)
(3399.99859558 0.000317135992264 3.97470394793e-10)
(3399.97161558 0.00641688407764 6.60292617183e-09)
(3399.42531098 0.130117249295 6.36539783078e-08)
(3389.23959565 2.44234070409 2.57113315821e-07)
(3273.95100822 28.731328378 4.17836879709e-07)
(2757.47818889 146.669868254 2.14441422398e-07)
(1852.50970286 352.588073571 -7.86912257669e-08)
(968.582997663 552.537595789 -1.83192780274e-07)
(397.981561143 680.513949789 -2.09691345473e-07)
(507.096021283 654.751915782 -1.19705075777e-07)
(3400 -2.93662251232e-11 -1.38845780456e-14)
(3400 -2.99685999538e-11 -8.70654856509e-15)
(3400 -2.64056132377e-11 -9.68234811105e-15)
(3400 -2.28838572966e-11 -8.19164188704e-15)
(3400 -2.13525282788e-11 -5.56448499441e-15)
(3400 -2.03918969318e-11 -4.31041490849e-15)
(3400 -1.86505320318e-11 -2.67595502565e-15)
(3400 -1.53156979959e-11 -2.7039034605e-15)
(3400 -1.12380084466e-11 -9.69160835744e-17)
(3400 -7.71235259043e-12 -2.94180591327e-15)
(3400 -6.37674342915e-12 -2.43912516164e-15)
(3400 -4.90188704099e-12 8.13068199364e-16)
(3400 -3.62104919787e-12 4.21656892723e-15)
(3400 -1.94575829282e-12 3.79456119785e-15)
(3400 1.01801869097e-12 2.17656477616e-15)
(3400 3.64725464767e-12 9.79056439178e-17)
(3400 3.40701932964e-12 2.11757851199e-16)
(3400 3.00447797082e-13 2.69253399558e-15)
(3400 -2.05557952361e-12 5.93893248119e-15)
(3400 -3.99557853556e-12 3.47643959505e-15)
(3400 -5.34291581797e-12 1.96819032331e-15)
(3400 -7.00418356946e-12 5.12235670348e-15)
(3400 -8.5800092821e-12 2.84072205254e-15)
(3400 -8.9436138417e-12 1.53457428126e-15)
(3400 -1.03582541887e-11 1.36782903014e-15)
(3400 -1.139189333e-11 7.32753488924e-15)
(3400 -1.27499531422e-11 3.74402898529e-15)
(3400 -1.42632740683e-11 1.53180999537e-15)
(3400 -1.45698749214e-11 2.21410551631e-16)
(3400 -1.53078636604e-11 1.09730407673e-17)
(3400 -1.75375991297e-11 -4.15480269311e-15)
(3400 -2.05129637162e-11 -7.75578043062e-15)
(3400 -2.28450663516e-11 -5.79372475808e-15)
(3400 -2.29197085618e-11 -7.14197198313e-16)
(3400 -2.0986658608e-11 3.63700832668e-15)
(3400 -2.00358541753e-11 3.12583913042e-15)
(3400 -1.69778393245e-11 1.53721526839e-15)
(3400 -1.42655410385e-11 -2.2656844267e-15)
(3400 -1.46847291509e-11 -6.93425358083e-15)
(3400 -1.46511693973e-11 -1.21473137629e-15)
(3400 -1.6609312032e-11 -5.02365508619e-17)
(3400 -1.71141090356e-11 3.71973073589e-18)
(3400 -1.59742459602e-11 4.46421538466e-15)
(3400 -1.38486733294e-11 2.494588136e-15)
(3400 -6.87459855429e-12 6.64704500609e-15)
(3400 1.03864349553e-10 4.48492399803e-15)
(3399.99999999 2.22329519699e-09 3.13949380709e-15)
(3399.99999983 4.35352757831e-08 2.5393466201e-14)
(3399.99999662 8.5593068003e-07 5.706640765e-13)
(3399.99993297 1.69664444316e-05 1.28028880604e-11)
(3399.99866265 0.000338831594421 2.6353893875e-10)
(3399.97316222 0.00680772007732 4.3887628847e-09)
(3399.46045649 0.137063595301 4.28802906964e-08)
(3389.9169624 2.56765413598 1.76382980863e-07)
(3280.577157 30.5324579308 2.88904560829e-07)
(2780.85834667 158.489835356 1.42189667955e-07)
(1890.98517806 385.463263533 -6.62676031924e-08)
(1014.44175411 607.646633164 -1.25798083638e-07)
(445.928461511 750.487945827 -1.17133276941e-07)
(555.047200499 721.506985211 -3.00381850088e-08)
(3400 -1.38840663119e-12 -4.74143979694e-15)
(3400 -2.88858199853e-12 -6.52119774718e-15)
(3400 -6.2014009689e-12 -6.30740045669e-15)
(3400 -7.13336139634e-12 -3.74596789862e-15)
(3400 -8.70066066575e-12 -1.18524461395e-15)
(3400 -1.14292375731e-11 -5.20338724586e-16)
(3400 -1.61109717964e-11 -2.85819564144e-16)
(3400 -2.00919838001e-11 3.84357202575e-16)
(3400 -1.88779281338e-11 -2.42777358493e-15)
(3400 -1.49679258812e-11 -1.66716096798e-15)
(3400 -1.31760188496e-11 -1.33781868685e-15)
(3400 -1.35474257837e-11 -2.81870751816e-16)
(3400 -1.46315773638e-11 -8.46357283407e-18)
(3400 -1.66274030176e-11 8.49618869459e-18)
(3400 -1.65982425837e-11 -2.28228517586e-15)
(3400 -1.33411363367e-11 -4.45964945381e-15)
(3400 -8.23641773605e-12 -3.97969643776e-15)
(3400 -5.13912462221e-12 -7.00799728818e-15)
(3400 -4.3366134188e-12 -2.32763791762e-15)
(3400 -1.862719906e-12 -2.55609817844e-15)
(3400 -2.2541542093e-14 -1.13119862873e-15)
(3400 -4.66592819913e-13 -3.73239496212e-16)
(3400 -2.06042301208e-12 -3.50666728444e-19)
(3400 -1.67938558648e-12 5.09880899055e-18)
(3400 -2.2182769185e-12 2.91684404872e-15)
(3400 -2.81075984978e-12 8.53451451276e-15)
(3400 -4.87371089566e-12 6.84352111509e-15)
(3400 -8.63749050253e-12 5.25592491578e-15)
(3400 -9.28368877315e-12 3.61880240085e-15)
(3400 -9.43644665859e-12 2.24374199784e-15)
(3400 -1.02643369815e-11 6.86526637991e-16)
(3400 -1.36853539324e-11 1.2513730759e-17)
(3400 -1.89629368876e-11 -4.7307328215e-15)
(3400 -2.34322570697e-11 -2.44184752524e-15)
(3400 -2.59663010161e-11 -1.52902183911e-15)
(3400 -2.86537301334e-11 -7.61604646605e-17)
(3400 -2.97793377058e-11 4.71316879105e-19)
(3400 -2.6375307302e-11 -3.91093475933e-15)
(3400 -2.24878201867e-11 7.11219767376e-16)
(3400 -1.93632590186e-11 -5.98642722284e-17)
(3400 -1.61993359088e-11 -3.9502541386e-18)