/*--------------------------------*- C++ -*----------------------------------*\
| =========                 |                                                 |
| \\      /  F ield         | foam-extend: Open Source CFD                    |
|  \\    /   O peration     | Version:     4.1                                |
|   \\  /    A nd           | Web:         http://www.foam-extend.org         |
|    \\/     M anipulation  |                                                 |
\*---------------------------------------------------------------------------*/
FoamFile
{
    version     2.0;
    format      ascii;
    class       volScalarField;
    location    "0.0006";
    object      eMoins;
}
// * * * * * * * * * * * * * * * * * * * * * * * * * * * * * * * * * * * * * //

dimensions      [0 0 0 0 0 0 0];

internalField   nonuniform List<scalar> 
8400
(
9.91207426935e-163
9.9120742694e-163
9.91207426946e-163
9.91207426952e-163
9.91207426957e-163
9.91207426963e-163
9.91207426968e-163
9.91207426973e-163
9.91207426978e-163
9.91207426983e-163
9.91207426988e-163
9.91207426993e-163
9.91207426998e-163
9.91207427003e-163
9.91207427007e-163
9.91207427012e-163
9.91207427016e-163
9.91207427022e-163
9.91207427095e-163
9.91207431147e-163
9.91207667591e-163
9.91220956984e-163
9.9198198432e-163
1.00782133022e-162
9.79455383494e-63
8.90827584104e-12
3.77141255432e-08
9.75560257841e-06
1.89624936796e-05
2.36815681309e-05
2.57136235034e-05
2.65034829908e-05
2.67771671591e-05
2.68710993271e-05
2.69115706772e-05
2.69390504618e-05
2.6962732051e-05
2.69849524272e-05
2.70065542599e-05
2.70279400242e-05
2.70493626354e-05
2.70712592348e-05
2.70908242116e-05
2.71142261976e-05
2.71384990748e-05
2.71638946854e-05
2.71905876565e-05
2.72187417257e-05
2.7248385787e-05
2.72794806356e-05
2.73120673246e-05
2.73461279794e-05
2.73815656447e-05
2.74183074901e-05
2.74563675185e-05
2.74921693915e-05
2.75315959406e-05
2.75711368944e-05
2.76104643434e-05
2.7649016437e-05
2.76861730237e-05
2.77216005903e-05
2.7754786141e-05
2.7785196254e-05
2.78123482146e-05
2.78357686784e-05
2.78550612852e-05
2.78699167033e-05
2.78801053969e-05
2.789612861e-05
9.91207425356e-163
9.91207425358e-163
9.9120742536e-163
9.91207425363e-163
9.91207425365e-163
9.91207425367e-163
9.91207425369e-163
9.91207425371e-163
9.91207425373e-163
9.91207425376e-163
9.91207425378e-163
9.9120742538e-163
9.91207425382e-163
9.91207425384e-163
9.91207425385e-163
9.91207425387e-163
9.91207425389e-163
9.91207425397e-163
9.9120742576e-163
9.91207446837e-163
9.91208673942e-163
9.91276937809e-163
9.95129210929e-163
1.04621286039e-162
2.25427780926e-20
3.65633457411e-09
2.68416441505e-06
1.42139350774e-05
2.15135516815e-05
2.49445469649e-05
2.63308499321e-05
2.68311464455e-05
2.69892866321e-05
2.70416972517e-05
2.70669940311e-05
2.70875679265e-05
2.71076580563e-05
2.71282005334e-05
2.7149435635e-05
2.71713940836e-05
2.71942402515e-05
2.72180630634e-05
2.72430045685e-05
2.72691138078e-05
2.72964325323e-05
2.73249713557e-05
2.73548863466e-05
2.73862893253e-05
2.74191901535e-05
2.74535017862e-05
2.74891233355e-05
2.75260245717e-05
2.756405726e-05
2.7603147339e-05
2.76431447525e-05
2.76835859308e-05
2.77241005907e-05
2.77644647691e-05
2.78042320615e-05
2.78427857423e-05
2.78797326457e-05
2.79146495059e-05
2.79470958868e-05
2.79765779623e-05
2.80026197246e-05
2.8024928535e-05
2.80432053236e-05
2.80571741534e-05
2.8066726021e-05
2.80797643266e-05
9.91207424647e-163
9.91207424648e-163
9.91207424649e-163
9.91207424651e-163
9.91207424652e-163
9.91207424653e-163
9.91207424655e-163
9.91207424656e-163
9.91207424657e-163
9.91207424659e-163
9.9120742466e-163
9.91207424661e-163
9.91207424662e-163
9.91207424663e-163
9.91207424665e-163
9.91207424666e-163
9.91207424668e-163
9.91207424701e-163
9.9120742659e-163
9.91207537991e-163
9.91213915384e-163
9.91579808019e-163
1.00218579858e-162
4.11002075381e-63
5.80927360794e-13
1.52981102345e-08
7.86249833906e-06
1.79597169457e-05
2.34066052056e-05
2.57747369776e-05
2.66841383015e-05
2.69894519063e-05
2.7077215647e-05
2.71105196327e-05
2.71292254669e-05
2.71462168499e-05
2.71635054151e-05
2.71816248405e-05
2.72007365476e-05
2.72208858466e-05
2.72451304901e-05
2.72677213552e-05
2.72917035881e-05
2.73170030377e-05
2.73437673608e-05
2.73720674497e-05
2.7401965945e-05
2.74334360342e-05
2.74663441147e-05
2.75007413107e-05
2.75365896478e-05
2.75737065162e-05
2.76117943847e-05
2.76507310394e-05
2.76903472293e-05
2.77274383361e-05
2.77674781776e-05
2.78070576819e-05
2.78456359136e-05
2.78829474893e-05
2.79185537424e-05
2.79520627788e-05
2.79829838971e-05
2.80109325489e-05
2.80355857981e-05
2.80565840199e-05
2.8073742652e-05
2.8086869272e-05
2.809583308e-05
2.81070987008e-05
9.91207424239e-163
9.9120742424e-163
9.91207424241e-163
9.91207424242e-163
9.91207424243e-163
9.91207424244e-163
9.91207424245e-163
9.91207424246e-163
9.91207424247e-163
9.91207424247e-163
9.91207424248e-163
9.91207424249e-163
9.9120742425e-163
9.91207424251e-163
9.91207424252e-163
9.91207424253e-163
9.91207424256e-163
9.91207424412e-163
9.91207433579e-163
9.91207972383e-163
9.9123828644e-163
9.92977773065e-163
1.02187396891e-162
1.8858487552e-39
1.00637541937e-09
5.5389424382e-07
1.20884568443e-05
2.04606190514e-05
2.45275333891e-05
2.62044589618e-05
2.68211542304e-05
2.70174495076e-05
2.70757188753e-05
2.71002669389e-05
2.71189016936e-05
2.71369142428e-05
2.71553931634e-05
2.71746092707e-05
2.71947388885e-05
2.72158949841e-05
2.72382189809e-05
2.72646847414e-05
2.7289457949e-05
2.73155965321e-05
2.73432760517e-05
2.73725085041e-05
2.74033522764e-05
2.74357582328e-05
2.74695966703e-05
2.75049098725e-05
2.75416721149e-05
2.7576425814e-05
2.76152282399e-05
2.76547777218e-05
2.76946761629e-05
2.7734683179e-05
2.77745663703e-05
2.7813880647e-05
2.78520670963e-05
2.78888736942e-05
2.79238534778e-05
2.79566152238e-05
2.79867118257e-05
2.80138311312e-05
2.80377041754e-05
2.80580161198e-05
2.80745641653e-05
2.80871936009e-05
2.80957988896e-05
2.81060613246e-05
9.91207423977e-163
9.91207423978e-163
9.91207423979e-163
9.9120742398e-163
9.9120742398e-163
9.91207423981e-163
9.91207423982e-163
9.91207423983e-163
9.91207423983e-163
9.91207423984e-163
9.91207423985e-163
9.91207423985e-163
9.91207423986e-163
9.91207423987e-163
9.91207423987e-163
9.91207423988e-163
9.91207423997e-163
9.91207424495e-163
9.91207453469e-163
9.91209139799e-163
9.91302991199e-163
9.96568659894e-163
1.06189520443e-162
1.04013298418e-16
5.2547367973e-09
3.85893883652e-06
1.51898170259e-05
2.20149753456e-05
2.5145493572e-05
2.63895684672e-05
2.68298101863e-05
2.69635408699e-05
2.7010562987e-05
2.70355794529e-05
2.70571205066e-05
2.70783306115e-05
2.70999896531e-05
2.71222962164e-05
2.71454191024e-05
2.71693510357e-05
2.7194340717e-05
2.72204757305e-05
2.72479496171e-05
2.72767705888e-05
2.73069602072e-05
2.73385307689e-05
2.73715871331e-05
2.74061962e-05
2.74422426123e-05
2.74794714109e-05
2.75178884059e-05
2.75572897966e-05
2.75975365782e-05
2.76385168652e-05
2.76797074053e-05
2.77206542608e-05
2.7761226471e-05
2.78011357566e-05
2.78398696685e-05
2.78769772879e-05
2.79120952265e-05
2.79449376092e-05
2.7972015381e-05
2.79992419936e-05
2.80231190847e-05
2.80433960434e-05
2.80597905895e-05
2.8072229295e-05
2.80807071992e-05
2.8090429926e-05
9.91207423798e-163
9.91207423799e-163
9.91207423799e-163
9.912074238e-163
9.912074238e-163
9.91207423801e-163
9.91207423802e-163
9.91207423802e-163
9.91207423803e-163
9.91207423803e-163
9.91207423804e-163
9.91207423804e-163
9.91207423805e-163
9.91207423806e-163
9.91207423806e-163
9.91207423807e-163
9.91207423832e-163
9.91207425303e-163
9.91207512633e-163
9.91212565173e-163
9.91502905128e-163
1.00112760577e-162
2.91269347563e-63
2.63508161621e-13
1.25629973609e-08
7.10628114005e-06
1.73759319935e-05
2.3004703169e-05
2.54704325823e-05
2.64253209995e-05
2.67537256293e-05
2.68546430514e-05
2.68988328482e-05
2.69277565279e-05
2.69541688129e-05
2.69802626652e-05
2.70065802404e-05
2.70333397841e-05
2.70607172171e-05
2.70889061167e-05
2.71180509266e-05
2.71482322993e-05
2.71794331817e-05
2.7211867426e-05
2.72456364916e-05
2.72807526455e-05
2.73171533016e-05
2.73548376045e-05
2.73938754156e-05
2.74341361054e-05
2.74752849251e-05
2.7517189204e-05
2.75597309646e-05
2.76026906295e-05
2.76458987725e-05
2.76888350435e-05
2.77281209097e-05
2.77693240642e-05
2.78091364422e-05
2.7847313752e-05
2.7883434374e-05
2.79169817698e-05
2.7947572681e-05
2.79750914605e-05
2.79992667217e-05
2.8019808623e-05
2.8036468777e-05
2.80491030892e-05
2.80576509073e-05
2.80670205667e-05
9.91207423669e-163
9.91207423669e-163
9.9120742367e-163
9.9120742367e-163
9.91207423671e-163
9.91207423671e-163
9.91207423672e-163
9.91207423672e-163
9.91207423673e-163
9.91207423673e-163
9.91207423674e-163
9.91207423674e-163
9.91207423675e-163
9.91207423675e-163
9.91207423676e-163
9.91207423677e-163
9.91207423747e-163
9.91207427857e-163
9.91207669447e-163
9.91221348048e-163
9.92008234565e-163
1.00836104871e-162
1.01960792797e-62
1.10971626851e-11
4.11876413254e-08
9.92402834316e-06
1.9007924633e-05
2.3659225288e-05
2.56210942218e-05
2.63694192975e-05
2.66200476353e-05
2.67053634102e-05
2.67511575583e-05
2.67854674002e-05
2.68177940023e-05
2.68497854468e-05
2.68819404902e-05
2.69143747038e-05
2.6947152761e-05
2.69804356282e-05
2.70144310791e-05
2.70492805107e-05
2.7085144932e-05
2.71221855245e-05
2.71603496795e-05
2.71995963188e-05
2.72400590448e-05
2.7281758958e-05
2.73244958814e-05
2.73681833717e-05
2.74098113743e-05
2.74549843088e-05
2.75006661759e-05
2.75465207127e-05
2.75921300238e-05
2.76373584472e-05
2.76818185164e-05
2.77249209838e-05
2.77664883896e-05
2.78061207481e-05
2.78434397345e-05
2.78781499062e-05
2.79098579924e-05
2.7938296259e-05
2.79601035296e-05
2.79813240213e-05
2.79984722746e-05
2.8011470447e-05
2.80202504662e-05
2.80295842131e-05
9.91207423572e-163
9.91207423573e-163
9.91207423573e-163
9.91207423573e-163
9.91207423574e-163
9.91207423574e-163
9.91207423575e-163
9.91207423575e-163
9.91207423576e-163
9.91207423576e-163
9.91207423576e-163
9.91207423577e-163
9.91207423577e-163
9.91207423578e-163
9.91207423578e-163
9.91207423582e-163
9.91207423772e-163
9.91207434914e-163
9.91208088884e-163
9.91244940453e-163
9.93362175528e-163
1.02680571432e-162
3.08206911511e-39
1.49153301302e-09
8.51116026099e-07
1.22587301974e-05
2.02219994107e-05
2.40684525108e-05
2.56661477824e-05
2.6257756566e-05
2.64555739728e-05
2.65281948102e-05
2.65732971802e-05
2.66159288625e-05
2.66544336283e-05
2.66926772741e-05
2.67310378627e-05
2.67695865672e-05
2.68082562098e-05
2.68472638138e-05
2.68869902688e-05
2.69274774092e-05
2.69686100215e-05
2.7010727872e-05
2.70508834485e-05
2.70949950149e-05
2.71401766788e-05
2.71862847489e-05
2.72332598358e-05
2.72810746983e-05
2.73294874835e-05
2.73782501518e-05
2.74272186587e-05
2.74761853508e-05
2.7524956879e-05
2.75729684835e-05
2.76199609905e-05
2.76626242454e-05
2.77063921033e-05
2.77479254092e-05
2.77870218048e-05
2.78233292979e-05
2.78564079304e-05
2.78859155326e-05
2.79117315749e-05
2.79336234149e-05
2.79513702313e-05
2.79648324425e-05
2.79739289277e-05
2.79832833775e-05
9.91207423498e-163
9.91207423498e-163
9.91207423498e-163
9.91207423499e-163
9.91207423499e-163
9.912074235e-163
9.912074235e-163
9.912074235e-163
9.91207423501e-163
9.91207423501e-163
9.91207423501e-163
9.91207423502e-163
9.91207423502e-163
9.91207423502e-163
9.91207423503e-163
9.91207423511e-163
9.91207423951e-163
9.91207449554e-163
9.91208937723e-163
9.91291703603e-163
9.95933360917e-163
1.05525276305e-162
4.92626692626e-18
4.3800657703e-09
3.07194710024e-06
1.42091114192e-05
2.11135103265e-05
2.4313919447e-05
2.56096855221e-05
2.6090809384e-05
2.62533053158e-05
2.63233932361e-05
2.63737689115e-05
2.64199565289e-05
2.64650124615e-05
2.65097875548e-05
2.65544568439e-05
2.65993717769e-05
2.66444940514e-05
2.66898208894e-05
2.67356767311e-05
2.67821757309e-05
2.68290576822e-05
2.68766851673e-05
2.69251185211e-05
2.69744914899e-05
2.70247226996e-05
2.70755340914e-05
2.71272126026e-05
2.71795513644e-05
2.72321821765e-05
2.72851566949e-05
2.73349905782e-05
2.7387636254e-05
2.74397154157e-05
2.74909363196e-05
2.75408136638e-05
2.75891432276e-05
2.76354360794e-05
2.76791622279e-05
2.7720205545e-05
2.77582112329e-05
2.77928691748e-05
2.78207272073e-05
2.78477858764e-05
2.78706239743e-05
2.78891334241e-05
2.79031692822e-05
2.79126550582e-05
2.79220664206e-05
9.91207423439e-163
9.91207423439e-163
9.91207423439e-163
9.9120742344e-163
9.9120742344e-163
9.9120742344e-163
9.91207423441e-163
9.91207423441e-163
9.91207423441e-163
9.91207423442e-163
9.91207423442e-163
9.91207423442e-163
9.91207423443e-163
9.91207423443e-163
9.91207423444e-163
9.91207423459e-163
9.91207424339e-163
9.91207476424e-163
9.91210546031e-163
9.9138649549e-163
9.99437219736e-163
1.00452557861e-63
3.63537592286e-14
8.68916785413e-09
5.49529803022e-06
1.58597411472e-05
2.17651713541e-05
2.4438294843e-05
2.54941183205e-05
2.58784959422e-05
2.6020482195e-05
2.60922560271e-05
2.61494588796e-05
2.62033218079e-05
2.62562145776e-05
2.63083877942e-05
2.63602940301e-05
2.64121756612e-05
2.6463930507e-05
2.6515843742e-05
2.65680414427e-05
2.66208141906e-05
2.66739781402e-05
2.67276513768e-05
2.67821452958e-05
2.6837210107e-05
2.68928906428e-05
2.69459943998e-05
2.70025447157e-05
2.70596092631e-05
2.71169804378e-05
2.7174179766e-05
2.72312825047e-05
2.72877606631e-05
2.73433505089e-05
2.73978616826e-05
2.74480491832e-05
2.74992816361e-05
2.75481716438e-05
2.75944682745e-05
2.76378197747e-05
2.76777356522e-05
2.77140266107e-05
2.77464251879e-05
2.77746733843e-05
2.77985420183e-05
2.7817902575e-05
2.78325956153e-05
2.7842563814e-05
2.78521545733e-05
9.91207423391e-163
9.91207423391e-163
9.91207423392e-163
9.91207423392e-163
9.91207423392e-163
9.91207423393e-163
9.91207423393e-163
9.91207423393e-163
9.91207423394e-163
9.91207423394e-163
9.91207423394e-163
9.91207423394e-163
9.91207423395e-163
9.91207423395e-163
9.91207423396e-163
9.91207423439e-163
9.91207425959e-163
9.91207573567e-163
9.91215949777e-163
9.91693387381e-163
1.00404921979e-162
5.5777322207e-63
1.21026002667e-12
1.77205735096e-08
7.81101842812e-06
1.72454252068e-05
2.22582217834e-05
2.44499339357e-05
2.53155001326e-05
2.56342284598e-05
2.57609183821e-05
2.58373129561e-05
2.59029686762e-05
2.59654189686e-05
2.60267724221e-05
2.60870379683e-05
2.61466842041e-05
2.62060184838e-05
2.62653195774e-05
2.63243153843e-05
2.63834741454e-05
2.64428928935e-05
2.64996035112e-05
2.65596510162e-05
2.66202210161e-05
2.66812200678e-05
2.67424844532e-05
2.6804169329e-05
2.68663080224e-05
2.69284613989e-05
2.69906072413e-05
2.70495535979e-05
2.71109364642e-05
2.7171436698e-05
2.72309885958e-05
2.72892240928e-05
2.73455544646e-05
2.73999292701e-05
2.74517847508e-05
2.74974193869e-05
2.75430561212e-05
2.75850639047e-05
2.76233945645e-05
2.76575822965e-05
2.76871935397e-05
2.77121357791e-05
2.77322886342e-05
2.77475756691e-05
2.77579719944e-05
2.77676749722e-05
9.91207423352e-163
9.91207423352e-163
9.91207423353e-163
9.91207423353e-163
9.91207423353e-163
9.91207423353e-163
9.91207423354e-163
9.91207423354e-163
9.91207423354e-163
9.91207423355e-163
9.91207423355e-163
9.91207423355e-163
9.91207423355e-163
9.91207423356e-163
9.91207423358e-163
9.91207423464e-163
9.91207429659e-163
9.91207792712e-163
9.91228307403e-163
9.92409000822e-163
1.01437728899e-162
7.49903115829e-41
1.36475356671e-10
7.03913479524e-08
1.00402236544e-05
1.84079106912e-05
2.260139279e-05
2.43951970989e-05
2.50968681586e-05
2.5358599926e-05
2.54787388237e-05
2.55616018825e-05
2.56362154545e-05
2.57079870751e-05
2.57780595998e-05
2.58470622018e-05
2.59153475815e-05
2.59798174712e-05
2.60467822413e-05
2.61135705644e-05
2.61800152122e-05
2.62465413571e-05
2.63131219889e-05
2.63796940242e-05
2.64464833361e-05
2.65138999985e-05
2.65781938066e-05
2.66457889248e-05
2.67132643019e-05
2.67808001979e-05
2.68481694216e-05
2.6914918312e-05
2.69809432222e-05
2.70460513369e-05
2.7106474073e-05
2.71683932622e-05
2.72282252187e-05
2.7285842686e-05
2.73404918591e-05
2.7391984444e-05
2.74399636361e-05
2.74844307063e-05
2.75213669355e-05
2.75572635197e-05
2.75883781674e-05
2.76145272887e-05
2.76356193743e-05
2.76516535526e-05
2.76625997607e-05
2.76724884592e-05
9.91207423319e-163
9.91207423319e-163
9.9120742332e-163
9.9120742332e-163
9.9120742332e-163
9.9120742332e-163
9.91207423321e-163
9.91207423321e-163
9.91207423321e-163
9.91207423321e-163
9.91207423322e-163
9.91207423322e-163
9.91207423322e-163
9.91207423323e-163
9.91207423328e-163
9.91207423613e-163
9.91207440233e-163
9.91208404716e-163
9.91261993755e-163
9.94274193485e-163
1.03749224581e-162
1.94508735195e-29
2.38989034765e-09
1.26492769856e-06
1.21119467174e-05
1.93347608798e-05
2.28199250779e-05
2.42738118635e-05
2.48431714835e-05
2.50618701154e-05
2.51782044385e-05
2.5267789871e-05
2.53513012954e-05
2.54324494376e-05
2.55092584166e-05
2.55875536327e-05
2.56644877256e-05
2.57406867139e-05
2.58158809663e-05
2.58906749354e-05
2.59648336568e-05
2.60386828922e-05
2.61094836818e-05
2.61832775531e-05
2.62569259645e-05
2.63304498505e-05
2.64040693126e-05
2.64776686261e-05
2.65510510577e-05
2.66209909117e-05
2.66934577315e-05
2.6765154498e-05
2.68360559619e-05
2.69055476914e-05
2.69733866991e-05
2.70394631182e-05
2.70997707865e-05
2.71608215536e-05
2.72184556663e-05
2.7272747431e-05
2.73233747516e-05
2.73701072181e-05
2.74123231624e-05
2.74497284746e-05
2.74822512874e-05
2.75063808761e-05
2.75286728045e-05
2.754551079e-05
2.75569431968e-05
2.75669242002e-05
9.91207423291e-163
9.91207423292e-163
9.91207423292e-163
9.91207423292e-163
9.91207423292e-163
9.91207423293e-163
9.91207423293e-163
9.91207423293e-163
9.91207423293e-163
9.91207423294e-163
9.91207423294e-163
9.91207423294e-163
9.91207423294e-163
9.91207423295e-163
9.91207423307e-163
9.91207423983e-163
9.91207462576e-163
9.91209659561e-163
9.91329548705e-163
9.97842651433e-163
1.07597364549e-162
1.15126937333e-15
5.82240023491e-09
3.66147099925e-06
1.39304207678e-05
2.00740587696e-05
2.2913079287e-05
2.40898945264e-05
2.45502265697e-05
2.47399103217e-05
2.48582090898e-05
2.49566362994e-05
2.50472199616e-05
2.51385271523e-05
2.52276990788e-05
2.53153922528e-05
2.54015473564e-05
2.54866483815e-05
2.55676272055e-05
2.56509269445e-05
2.57334159208e-05
2.58152094252e-05
2.58963739703e-05
2.59773563078e-05
2.60579728039e-05
2.61352796065e-05
2.62153668896e-05
2.62949690129e-05
2.63743559825e-05
2.64530013047e-05
2.65308453045e-05
2.66046540648e-05
2.6680325106e-05
2.67542324913e-05
2.68264153169e-05
2.68963888634e-05
2.69637127641e-05
2.70249134061e-05
2.70859498164e-05
2.71432200417e-05
2.71965161011e-05
2.72455765249e-05
2.72898349984e-05
2.73291321455e-05
2.73631399039e-05
2.73916905469e-05
2.74148466519e-05
2.74291060689e-05
2.74412760692e-05
2.7451459478e-05
9.91207423267e-163
9.91207423268e-163
9.91207423268e-163
9.91207423268e-163
9.91207423268e-163
9.91207423269e-163
9.91207423269e-163
9.91207423269e-163
9.91207423269e-163
9.9120742327e-163
9.9120742327e-163
9.9120742327e-163
9.9120742327e-163
9.91207423271e-163
9.91207423305e-163
9.91207425265e-163
9.91207539071e-163
9.91213967345e-163
9.91574542781e-163
1.0025649461e-162
3.63522475623e-63
3.71586383004e-13
1.23305510824e-08
6.23030320691e-06
1.55091385933e-05
2.0609229063e-05
2.29006940057e-05
2.38448977057e-05
2.42202986139e-05
2.43959177426e-05
2.45175310997e-05
2.46263275553e-05
2.47307764694e-05
2.4832503586e-05
2.49321096595e-05
2.50265632119e-05
2.51224897146e-05
2.52167333111e-05
2.53094833812e-05
2.54014053211e-05
2.5492072265e-05
2.55790427342e-05
2.56683737049e-05
2.57570102217e-05
2.58448760578e-05
2.59323727817e-05
2.601576665e-05
2.61018531412e-05
2.61873771962e-05
2.62715952009e-05
2.63549352166e-05
2.64371752726e-05
2.65144222179e-05
2.65930899276e-05
2.66694951107e-05
2.67434156031e-05
2.6814607691e-05
2.68824131062e-05
2.69431547126e-05
2.70035381e-05
2.70595395117e-05
2.71108185125e-05
2.71571846838e-05
2.71983248614e-05
2.72340261784e-05
2.72640251067e-05
2.72882835261e-05
2.73069120289e-05
2.73160421518e-05
2.73300218996e-05
9.91207423247e-163
9.91207423247e-163
9.91207423247e-163
9.91207423247e-163
9.91207423248e-163
9.91207423248e-163
9.91207423248e-163
9.91207423248e-163
9.91207423248e-163
9.91207423249e-163
9.91207423249e-163
9.91207423249e-163
9.91207423249e-163
9.91207423251e-163
9.91207423352e-163
9.91207429101e-163
9.91207758808e-163
9.91225998878e-163
9.92247575718e-163
1.01205823477e-162
1.23610655037e-62
2.62190771952e-11
3.87368137845e-08
8.73420742257e-06
1.68261572378e-05
2.09901767429e-05
2.2806422851e-05
2.35522617034e-05
2.38666180578e-05
2.40326808889e-05
2.4163440807e-05
2.42843150869e-05
2.44005474073e-05
2.45106093942e-05
2.46208760492e-05
2.47286618484e-05
2.48344098892e-05
2.49384080699e-05
2.50371769635e-05
2.51379928801e-05
2.52374306336e-05
2.53356309453e-05
2.54294750265e-05
2.55259545758e-05
2.56211693718e-05
2.57158201052e-05
2.58094025566e-05
2.58988881143e-05
2.59905852277e-05
2.60809810681e-05
2.61697607327e-05
2.62572235102e-05
2.63392476645e-05
2.64228077086e-05
2.65035904024e-05
2.65814931917e-05
2.66562463953e-05
2.67277007714e-05
2.67916609625e-05
2.68548325202e-05
2.69133255877e-05
2.69669313987e-05
2.70153868118e-05
2.70583876955e-05
2.7095543542e-05
2.71268760414e-05
2.7152213905e-05
2.71715255338e-05
2.71809820913e-05
2.71914124332e-05
9.91207423229e-163
9.91207423229e-163
9.91207423229e-163
9.91207423229e-163
9.91207423229e-163
9.9120742323e-163
9.9120742323e-163
9.9120742323e-163
9.9120742323e-163
9.9120742323e-163
9.91207423231e-163
9.91207423231e-163
9.91207423231e-163
9.91207423237e-163
9.91207423561e-163
9.91207442172e-163
9.91208506588e-163
9.91266876603e-163
9.94491109086e-163
1.04026412743e-162
2.11631069471e-29
2.3450796247e-09
9.92466933845e-07
1.10887768581e-05
1.79080890798e-05
2.12116367218e-05
2.26396445401e-05
2.32305950042e-05
2.3493923122e-05
2.36571844987e-05
2.37970915329e-05
2.39265853203e-05
2.40546281474e-05
2.41795502643e-05
2.43011955117e-05
2.44168772354e-05
2.45329343332e-05
2.46466668997e-05
2.47581610306e-05
2.4864797593e-05
2.49728818496e-05
2.50796477072e-05
2.5184830997e-05
2.52858481276e-05
2.53886108926e-05
2.5490344216e-05
2.5590787386e-05
2.56900341525e-05
2.5784616679e-05
2.58812453193e-05
2.59760050092e-05
2.60687147665e-05
2.61592370579e-05
2.62438546522e-05
2.63290685441e-05
2.6411081617e-05
2.64897052405e-05
2.65646067821e-05
2.66315976968e-05
2.66976016828e-05
2.67587105286e-05
2.68146079013e-05
2.68650092052e-05
2.69096424435e-05
2.69483569988e-05
2.69811097495e-05
2.70038580264e-05
2.70239753099e-05
2.70376502887e-05
2.70481193641e-05
9.91207423213e-163
9.91207423213e-163
9.91207423213e-163
9.91207423213e-163
9.91207423213e-163
9.91207423214e-163
9.91207423214e-163
9.91207423214e-163
9.91207423214e-163
9.91207423214e-163
9.91207423215e-163
9.91207423215e-163
9.91207423215e-163
9.91207423232e-163
9.91207424155e-163
9.91207475658e-163
9.91210335079e-163
9.91364111228e-163
9.99323895933e-163
3.81507415595e-64
9.69253545894e-15
6.673075034e-09
3.70747103762e-06
1.31434846652e-05
1.87023021805e-05
2.12914709191e-05
2.23978564489e-05
2.28674151936e-05
2.31030551402e-05
2.32701703425e-05
2.3418337438e-05
2.35627624e-05
2.37029867657e-05
2.38359944718e-05
2.39689471834e-05
2.40982235946e-05
2.42249141389e-05
2.43457483896e-05
2.44671950786e-05
2.45865261589e-05
2.47003750692e-05
2.48156535489e-05
2.4929053944e-05
2.50410222934e-05
2.51480732449e-05
2.52568793078e-05
2.53643800767e-05
2.54702435491e-05
2.55709126952e-05
2.5673411923e-05
2.57736709501e-05
2.58718201114e-05
2.59640745397e-05
2.60568861865e-05
2.61465853537e-05
2.62327793249e-05
2.63153376948e-05
2.63936364419e-05
2.6463525878e-05
2.65325373781e-05
2.65962431791e-05
2.66543537357e-05
2.67066948463e-05
2.67530594338e-05
2.67933454969e-05
2.68235216298e-05
2.68510258625e-05
2.68718543664e-05
2.68860775242e-05
2.68966112313e-05
9.91207423198e-163
9.91207423199e-163
9.91207423199e-163
9.91207423199e-163
9.91207423199e-163
9.91207423199e-163
9.912074232e-163
9.912074232e-163
9.912074232e-163
9.912074232e-163
9.912074232e-163
9.912074232e-163
9.91207423202e-163
9.91207423268e-163
9.91207427026e-163
9.91207639914e-163
9.91219318031e-163
9.91861419741e-163
1.00687538835e-162
7.07238870186e-63
2.01135099324e-12
1.7588053959e-08
6.62588847212e-06
1.48467085079e-05
1.92570899463e-05
2.12390124843e-05
2.20937008528e-05
2.24757302186e-05
2.26933041072e-05
2.28696667729e-05
2.30334913204e-05
2.31908486911e-05
2.33403632666e-05
2.34885343542e-05
2.36293415313e-05
2.37697329642e-05
2.39067830138e-05
2.40375352242e-05
2.41687912212e-05
2.42972520895e-05
2.44232968838e-05
2.45441871742e-05
2.46660698416e-05
2.47860635059e-05
2.49006628237e-05
2.50169682082e-05
2.51311798731e-05
2.52434691235e-05
2.53505006713e-05
2.54587639825e-05
2.55646274586e-05
2.56682290326e-05
2.57650271768e-05
2.58625868524e-05
2.5956527111e-05
2.60466629203e-05
2.613290196e-05
2.62110536526e-05
2.62880263981e-05
2.63597276181e-05
2.64259370066e-05
2.64863363208e-05
2.65408659943e-05
2.65851788524e-05
2.66269571709e-05
2.66620527619e-05
2.66904351046e-05
2.67120134492e-05
2.67268000636e-05
2.67375115129e-05
9.91207423186e-163
9.91207423186e-163
9.91207423186e-163
9.91207423186e-163
9.91207423186e-163
9.91207423187e-163
9.91207423187e-163
9.91207423187e-163
9.91207423187e-163
9.91207423187e-163
9.91207423187e-163
9.91207423188e-163
9.91207423192e-163
9.91207423451e-163
9.91207438012e-163
9.91208253972e-163
9.9125231653e-163
9.93654924189e-163
1.03098790498e-162
3.03921329129e-39
1.26462652527e-09
2.08057829184e-07
9.39751205282e-06
1.62046851276e-05
1.95861369148e-05
2.10856400135e-05
2.17455094193e-05
2.20643973063e-05
2.22775781702e-05
2.24644141003e-05
2.26385647803e-05
2.28091317124e-05
2.29745214189e-05
2.31318789036e-05
2.32875027108e-05
2.34358851821e-05
2.35831775694e-05
2.37272264424e-05
2.38646570707e-05
2.40027010926e-05
2.41376553788e-05
2.42668374351e-05
2.4397186914e-05
2.45249684608e-05
2.46472775146e-05
2.47707860767e-05
2.48920418488e-05
2.50112622677e-05
2.51242552335e-05
2.5238273617e-05
2.53495920723e-05
2.54582794345e-05
2.55597911713e-05
2.56617220068e-05
2.5760105735e-05
2.5854236079e-05
2.59401260511e-05
2.60251734533e-05
2.61050021729e-05
2.61793564129e-05
2.62479842592e-05
2.6310689844e-05
2.63633671115e-05
2.64133839864e-05
2.64565870216e-05
2.64929150415e-05
2.65222785155e-05
2.65446498496e-05
2.65600313025e-05
2.65709182303e-05
9.91207423174e-163
9.91207423174e-163
9.91207423175e-163
9.91207423175e-163
9.91207423175e-163
9.91207423175e-163
9.91207423175e-163
9.91207423175e-163
9.91207423176e-163
9.91207423176e-163
9.91207423176e-163
9.91207423176e-163
9.91207423194e-163
9.91207424157e-163
9.91207477179e-163
9.91210379492e-163
9.9136292405e-163
9.99229542724e-163
1.01249600116e-64
3.63567470023e-15
5.87889274087e-09
2.83337046288e-06
1.18239206014e-05
1.71858485899e-05
1.97292204762e-05
2.08523008638e-05
2.13619056882e-05
2.16426210138e-05
2.18585255964e-05
2.20538209723e-05
2.22437989984e-05
2.24241392812e-05
2.26016075555e-05
2.27706542686e-05
2.29378485528e-05
2.3100307859e-05
2.32554583399e-05
2.34098451789e-05
2.3557045859e-05
2.37039240146e-05
2.3848011007e-05
2.39856543368e-05
2.41237751052e-05
2.42596219209e-05
2.43889805061e-05
2.45195350451e-05
2.46477511187e-05
2.47693223197e-05
2.48923896164e-05
2.50123444368e-05
2.51292865507e-05
2.52390520545e-05
2.53492178116e-05
2.54555446702e-05
2.55577747342e-05
2.56517503535e-05
2.57449215705e-05
2.58329657949e-05
2.59155993745e-05
2.59926145918e-05
2.6059537241e-05
2.61243800975e-05
2.6182568836e-05
2.62340321306e-05
2.62785846535e-05
2.63161136744e-05
2.63465081698e-05
2.63696249436e-05
2.63856587138e-05
2.63928369391e-05
9.91207423164e-163
9.91207423164e-163
9.91207423164e-163
9.91207423164e-163
9.91207423165e-163
9.91207423165e-163
9.91207423165e-163
9.91207423165e-163
9.91207423165e-163
9.91207423165e-163
9.91207423166e-163
9.91207423167e-163
9.91207423254e-163
9.91207428112e-163
9.91207698091e-163
9.91222232551e-163
9.92006462326e-163
1.00908558106e-162
8.34012111349e-63
3.09141924686e-12
1.80590142967e-08
6.15395770821e-06
1.37453893323e-05
1.78278341048e-05
1.96924296453e-05
2.05352749754e-05
2.09462674227e-05
2.12094255764e-05
2.14339216716e-05
2.16448477221e-05
2.1845063065e-05
2.20378276547e-05
2.2227542916e-05
2.24079480555e-05
2.25864426231e-05
2.27595873762e-05
2.29250370074e-05
2.30891325558e-05
2.32461872568e-05
2.3402454928e-05
2.35555005792e-05
2.37012912129e-05
2.38475493775e-05
2.39871629289e-05
2.41274864213e-05
2.42648787159e-05
2.43993917399e-05
2.45273527874e-05
2.46559388471e-05
2.47813805966e-05
2.48995902579e-05
2.50185177934e-05
2.51331900266e-05
2.52438792088e-05
2.53459769239e-05
2.54475571427e-05
2.55439362792e-05
2.56351654671e-05
2.5716305721e-05
2.57958358164e-05
2.58689932321e-05
2.59356071242e-05
2.59954832024e-05
2.60485323135e-05
2.60900975964e-05
2.61289410186e-05
2.61602851733e-05
2.61842003681e-05
2.62007642075e-05
2.62119953245e-05
9.91207423154e-163
9.91207423155e-163
9.91207423155e-163
9.91207423155e-163
9.91207423155e-163
9.91207423155e-163
9.91207423155e-163
9.91207423156e-163
9.91207423156e-163
9.91207423156e-163
9.91207423156e-163
9.91207423164e-163
9.91207423594e-163
9.91207447416e-163
9.91208761578e-163
9.9127854019e-163
9.94979897521e-163
1.04638762784e-162
2.43851095076e-29
2.2393583892e-09
4.70300829757e-07
9.17953552902e-06
1.52016836024e-05
1.81815269623e-05
1.95362666783e-05
2.0169521523e-05
2.05154516365e-05
2.07758999709e-05
2.1008928624e-05
2.12341140739e-05
2.14472291092e-05
2.16558109136e-05
2.18541366487e-05
2.20494067458e-05
2.22353409497e-05
2.24188583761e-05
2.25942910221e-05
2.27680567108e-05
2.29339270907e-05
2.30993224346e-05
2.32569596765e-05
2.34145961853e-05
2.35689503537e-05
2.37160062498e-05
2.38637448686e-05
2.40077483541e-05
2.41447071667e-05
2.4282183278e-05
2.441666369e-05
2.45432016268e-05
2.4670284171e-05
2.47936930674e-05
2.49086259303e-05
2.50233174888e-05
2.51331769404e-05
2.52381607445e-05
2.53334412827e-05
2.54275758981e-05
2.5515636109e-05
2.55974800156e-05
2.5672754655e-05
2.57413599218e-05
2.57985346538e-05