/*--------------------------------*- C++ -*----------------------------------*\
| =========                 |                                                 |
| \\      /  F ield         | foam-extend: Open Source CFD                    |
|  \\    /   O peration     | Version:     4.1                                |
|   \\  /    A nd           | Web:         http://www.foam-extend.org         |
|    \\/     M anipulation  |                                                 |
\*---------------------------------------------------------------------------*/
FoamFile
{
    version     2.0;
    format      ascii;
    class       volScalarField;
    location    "0.0006";
    object      Mach;
}
// * * * * * * * * * * * * * * * * * * * * * * * * * * * * * * * * * * * * * //

dimensions      [0 0 0 0 0 0 0];

internalField   nonuniform List<scalar> 
8400
(
56.1971337727
56.1971337727
56.1971337728
56.1971337728
56.1971337728
56.1971337729
56.1971337729
56.1971337729
56.197133773
56.197133773
56.197133773
56.1971337731
56.1971337731
56.1971337731
56.1971337731
56.1971337732
56.1971337732
56.1971337732
56.1971337732
56.1971337717
56.1971336825
56.1971285407
56.1968378229
56.1840437812
40.6584944379
14.8262915036
6.90356147573
3.18469221916
1.69458972949
0.898899416745
0.495102616042
0.317297003128
0.254156086913
0.234358832378
0.226630599709
0.221609172973
0.217026004231
0.212384752916
0.207602083641
0.202688444998
0.197671980379
0.192596373315
0.187466007929
0.182287485569
0.17713234246
0.172011192998
0.166946167121
0.161960072075
0.157074268694
0.152311283461
0.147698340256
0.14326342044
0.139026138589
0.134995407841
0.131193742528
0.127617031924
0.12427226812
0.121209084243
0.118425942025
0.115929142281
0.113719340434
0.1117926091
0.110141710529
0.108757005744
0.107625891898
0.106732169161
0.106055212919
0.10557291289
0.105263940232
0.105200682883
56.19713378
56.19713378
56.19713378
56.19713378
56.1971337801
56.1971337801
56.1971337801
56.1971337801
56.1971337801
56.1971337801
56.1971337801
56.1971337801
56.1971337801
56.1971337801
56.1971337801
56.1971337801
56.1971337802
56.1971337802
56.19713378
56.1971337721
56.1971333077
56.1971067273
56.1956219123
56.1353490012
22.847711467
10.3707507428
4.67057938614
2.45884335507
1.29632902298
0.682185126571
0.385751915826
0.26737753241
0.229216587824
0.216716022087
0.210613979847
0.205992384644
0.201778508492
0.197746357054
0.193851420349
0.19008706647
0.186453274183
0.182952226802
0.179585066345
0.176358089685
0.173276857312
0.170348450723
0.167578469674
0.164971595397
0.162533359052
0.160269062837
0.158184188013
0.156282589718
0.154563645229
0.153022579112
0.151654302087
0.15045434801
0.149415434619
0.148531175188
0.147794344454
0.147194458494
0.146717070947
0.146346383466
0.146067025237
0.145863866948
0.145722179512
0.145626886593
0.145563257976
0.145517899133
0.145479809979
0.14547842929
56.1971337841
56.1971337841
56.1971337841
56.1971337841
56.1971337841
56.1971337841
56.1971337841
56.1971337841
56.1971337841
56.1971337841
56.1971337841
56.1971337841
56.1971337841
56.1971337841
56.1971337841
56.1971337841
56.1971337841
56.1971337841
56.1971337834
56.1971337415
56.1971312935
56.1969912417
56.1903756341
48.695414263
17.038028857
7.92839232386
3.5419473157
1.8752220801
0.98504592407
0.531975521139
0.333790642101
0.26555910575
0.245011816127
0.237146345088
0.232301925292
0.228283950205
0.224650759414
0.221304544596
0.218216935111
0.215362379294
0.212740098461
0.210359014459
0.208171777479
0.206180710062
0.204378133262
0.202756743143
0.201309588246
0.200029296005
0.19890640946
0.197931607951
0.197097965966
0.196400674599
0.195828745312
0.195370860291
0.195019746186
0.194763808
0.194575258222
0.194467345042
0.194424268049
0.1944327691
0.194480340397
0.194556542658
0.19465082923
0.194752589851
0.194851030852
0.194935712157
0.194998255794
0.195031844947
0.195031169548
0.19501720421
56.1971337867
56.1971337867
56.1971337866
56.1971337866
56.1971337866
56.1971337866
56.1971337866
56.1971337866
56.1971337866
56.1971337866
56.1971337866
56.1971337866
56.1971337866
56.1971337866
56.1971337866
56.1971337866
56.1971337866
56.1971337866
56.1971337831
56.1971335799
56.1971218338
56.1964570748
56.1682970372
30.8735619085
11.7755553046
5.43646373262
2.81017407984
1.48899860858
0.795601606504
0.466188198862
0.340626440133
0.302355771235
0.290023116287
0.283848870197
0.27917873639
0.275062128213
0.271305072258
0.267858888843
0.264701275687
0.261814106622
0.259181008975
0.256765015472
0.254596534211
0.252646879174
0.250887046015
0.249312366851
0.247912060481
0.246675544392
0.245589585432
0.244643528737
0.243836611138
0.243160583415
0.242573779244
0.242091837094
0.241700290657
0.241387990101
0.241146849141
0.240968203527
0.240841146998
0.24075502472
0.240701261663
0.240672982906
0.240662468577
0.240659323641
0.240655880357
0.240645156437
0.240622050785
0.240582272879
0.240522223896
0.240464195515
56.1971337883
56.1971337883
56.1971337883
56.1971337883
56.1971337883
56.1971337883
56.1971337883
56.1971337883
56.1971337883
56.1971337883
56.1971337883
56.1971337883
56.1971337883
56.1971337883
56.1971337883
56.1971337883
56.1971337883
56.1971337881
56.1971337772
56.1971331397
56.1970966585
56.1950622184
56.1139065762
20.4138938049
9.77500414378
4.374283383
2.3179772096
1.24142941705
0.695792231539
0.460887410896
0.382357568318
0.358796746233
0.349394752297
0.343285969416
0.338087846977
0.333330265413
0.328911868149
0.324803223316
0.320986441173
0.317446451768
0.31416803695
0.31113598611
0.30833631256
0.305756328768
0.30338526129
0.301212149541
0.299224551416
0.297409755194
0.295758755156
0.29426217343
0.292910644967
0.291692382849
0.290598317176
0.289617797156
0.288744805359
0.287972300123
0.287290894507
0.286688131077
0.286156497525
0.285689665217
0.285282141243
0.28492773389
0.284631321312
0.284353294432
0.284108461216
0.283890999021
0.283697287251
0.283523192677
0.283364918525
0.283248549801
56.1971337895
56.1971337895
56.1971337895
56.1971337895
56.1971337895
56.1971337895
56.1971337895
56.1971337895
56.1971337895
56.1971337895
56.1971337895
56.1971337895
56.1971337895
56.1971337895
56.1971337895
56.1971337895
56.1971337895
56.1971337889
56.1971337562
56.1971318306
56.1970209307
56.1916042796
50.6989997994
17.5609624147
8.23402767241
3.68699353932
1.97743491546
1.08454541687
0.656861819607
0.491705171813
0.440482434953
0.42360955043
0.414931347347
0.408224912026
0.402161681379
0.396488555745
0.391147097459
0.386115116922
0.381377598207
0.376920025622
0.372729573746
0.368793951298
0.365100787721
0.36163827323
0.358395897504
0.355364891296
0.352535368836
0.349896174208
0.347436863206
0.34515136431
0.343035231023
0.341077912427
0.339267929714
0.337596760726
0.336057641354
0.334649610527
0.333379013759
0.33220243063
0.331134212997
0.330165940833
0.329293526056
0.328512826567
0.32781689044
0.327200696813
0.326659385815
0.326188926035
0.325787209857
0.32545122717
0.325177971328
0.324998022224
56.1971337904
56.1971337904
56.1971337904
56.1971337904
56.1971337904
56.1971337904
56.1971337904
56.1971337904
56.1971337904
56.1971337904
56.1971337904
56.1971337904
56.1971337904
56.1971337904
56.1971337904
56.1971337904
56.1971337904
56.1971337888
56.1971336981
56.1971284394
56.19682929
56.1836622212
40.157152867
14.6147392431
6.83871295619
3.18139964288
1.73088290059
0.988986850662
0.657829190201
0.541427692708
0.505656193764
0.491763890859
0.482923880301
0.475382171633
0.46834649281
0.461668925295
0.455312687096
0.449264190937
0.443511824643
0.438044202919
0.432849931768
0.427917899371
0.423237500992
0.418798180706
0.414594541944
0.410617004101
0.406856194958
0.403302456501
0.3999512084
0.39679909249
0.393854538568
0.391070488144
0.388464637281
0.386028387522
0.383756958725
0.381646201643
0.379691857244
0.377890712309
0.376234538086
0.374719482042
0.373343428397
0.372101375678
0.370990346084
0.37000555324
0.369162908191
0.368418244055
0.367793203355
0.367284212809
0.366888651583
0.366641631303
56.1971337911
56.1971337911
56.1971337911
56.1971337911
56.1971337911
56.1971337911
56.1971337911
56.197133791
56.197133791
56.197133791
56.197133791
56.197133791
56.197133791
56.197133791
56.197133791
56.197133791
56.197133791
56.1971337868
56.1971335416
56.1971193623
56.1963150394
56.1625329567
28.6379045479
11.4607590779
5.28576906137
2.79238732299
1.55046812971
0.93728664519
0.684131789036
0.600754396631
0.573798355781
0.561180802402
0.5518178782
0.543324774735
0.535296374846
0.527599690286
0.52021547344
0.513134567922
0.506349398074
0.499851212768
0.493630455836
0.48768097239
0.481994302011
0.476563321101
0.471399149122
0.466447422638
0.461732479737
0.457246753744
0.452984046989
0.448937733605
0.445106419167
0.441486768651
0.438072203141
0.434857326486
0.431838613816
0.429014788051
0.426383636708
0.423961128066
0.421702541246
0.419630546557
0.417739420519
0.416026396098
0.414491034372
0.413131689688
0.411943636471
0.41092574071
0.410075893951
0.409392368279
0.408872635872
0.40855800075
56.1971337916
56.1971337916
56.1971337916
56.1971337916
56.1971337916
56.1971337916
56.1971337916
56.1971337916
56.1971337916
56.1971337916
56.1971337916
56.1971337916
56.1971337916
56.1971337916
56.1971337916
56.1971337915
56.1971337914
56.1971337818
56.1971332231
56.1971012975
56.1953222176
56.1246162598
21.4751958483
10.0894826711
4.57624953348
2.4817625243
1.41967052806
0.919030277892
0.727227609483
0.66570235119
0.643673635519
0.631276685751
0.621102182279
0.61162667895
0.602548017748
0.593803684513
0.585375888212
0.577253186882
0.569431018671
0.561902331753
0.554659173204
0.547695261931
0.541006074666
0.534583295977
0.528420655171
0.522514139036
0.516860914197
0.511455623345
0.506292126437
0.501368896865
0.496684922125
0.492236168297
0.488046736954
0.484060129061
0.480303520813
0.476773307761
0.473470730255
0.470392805706
0.467543317952
0.464921138854
0.462523235761
0.46034750069
0.458395384032
0.456692184788
0.455182037273
0.453891482425
0.452818794805
0.451962500058
0.451320340382
0.450940241944
56.197133792
56.197133792
56.197133792
56.197133792
56.197133792
56.197133792
56.197133792
56.197133792
56.197133792
56.197133792
56.197133792
56.197133792
56.197133792
56.197133792
56.197133792
56.197133792
56.1971337916
56.1971337723
56.1971326253
56.1970657959
56.1934761775
54.2437669961
18.5522539159
8.87485385039
4.01969842735
2.22879015974
1.32769520498
0.925661004444
0.78093195428
0.733932038224
0.714545103147
0.701776005471
0.690609424584
0.680038378773
0.66986078477
0.66003342934
0.650537132452
0.641360954801
0.632499408582
0.62394368016
0.615687395022
0.607721753099
0.600046137271
0.592651765264
0.585532412595
0.578689227215
0.572113246731
0.565834913945
0.559794298731
0.554014670175
0.548495599805
0.543240340222
0.538243268607
0.533509187164
0.529036257227
0.524823133871
0.520896880006
0.517206043582
0.513782738749
0.510625757506
0.507734946839
0.505112571268
0.502757871727
0.500668616787
0.498847047512
0.497292837462
0.496004140861
0.494980256954
0.494218280419
0.493773781995
56.1971337923
56.1971337923
56.1971337923
56.1971337923
56.1971337923
56.1971337923
56.1971337923
56.1971337923
56.1971337923
56.1971337923
56.1971337923
56.1971337923
56.1971337923
56.1971337923
56.1971337923
56.1971337923
56.1971337913
56.1971337363
56.1971305553
56.1969500333
56.1887485432
46.3798405435
16.5030249786
7.73478005494
3.56209394907
2.02235437465
1.26781525717
0.950841702666
0.841431980637
0.803970916434
0.78592142466
0.772459077036
0.76020531494
0.748494056954
0.737183693316
0.726245106373
0.715660842762
0.705419068256
0.695508107213
0.685924157016
0.676656174447
0.667700548472
0.659082929046
0.650727396731
0.642669264207
0.634904003021
0.62743048907
0.620245456357
0.613345556728
0.606734120145
0.600409680037
0.594400650197
0.588648570867
0.583189878188
0.578022826548
0.573148061985
0.568569170739
0.5642879462
0.560310601804
0.556671017443
0.553306065273
0.550252485661
0.547506459489
0.545071335598
0.542949579239
0.541141810527
0.539647107895
0.53846243939
0.537584370245
0.537077827204
56.1971337926
56.1971337926
56.1971337926
56.1971337926
56.1971337926
56.1971337926
56.1971337926
56.1971337926
56.1971337926
56.1971337926
56.1971337926
56.1971337926
56.1971337926
56.1971337926
56.1971337926
56.1971337925
56.1971337902
56.1971336556
56.1971258687
56.1966829554
56.1776339079
34.8282206445
12.7067776222
6.44061459266
3.1684268657
1.85540447006
1.23512690573
0.989354917004
0.906085483879
0.875022143318
0.857459964879
0.843134470788
0.829755070963
0.816885013769
0.804434168743
0.792372061435
0.780687004315
0.769406921089
0.758441123432
0.747822562794
0.737545469027
0.727599842294
0.717981337508
0.708686402771
0.699706932499
0.691039522332
0.682720944821
0.674674208489
0.666942712147
0.659521706553
0.652410216635
0.645611771954
0.639131649484
0.632970681481
0.627169453043
0.621656529458
0.616476185619
0.611628752262
0.60712133632
0.602956828192
0.599139458256
0.595667169066
0.592582367924
0.589814019769
0.587405113644
0.585355250389
0.583661112833
0.582319792685
0.58132766382
0.580760007667
56.1971337928
56.1971337928
56.1971337928
56.1971337928
56.1971337928
56.1971337928
56.1971337928
56.1971337928
56.1971337928
56.1971337928
56.1971337928
56.1971337928
56.1971337928
56.1971337928
56.1971337928
56.1971337927
56.1971337865
56.1971334285
56.1971130139
56.1959754787
56.1503403104
25.5503197984
10.9709261299
5.1219640232
2.83039077121
1.72549067782
1.22571736393
1.03781805033
0.973506959382
0.946555158105
0.928945292941
0.913650640354
0.899133056424
0.885106465681
0.871546234259
0.858356342787
0.845570366167
0.833173281806
0.821162154063
0.809518583976
0.798239338233
0.787318128898
0.77678374948
0.76655021809
0.756661545776
0.747113091506
0.737896531905
0.729015722548
0.72047295589
0.712301915195
0.70443031265
0.696902819675
0.68971594216
0.682879786687
0.67639456345
0.670266638917
0.664545878871
0.659152826224
0.654136791995
0.649500713538
0.645247434675
0.641379489732
0.637902626917
0.634822291879
0.632138900444
0.629889981898
0.628000053963
0.626507572304
0.625405394331
0.624781031167
56.197133793
56.197133793
56.197133793
56.197133793
56.197133793
56.197133793
56.197133793
56.197133793
56.197133793
56.197133793
56.197133793
56.197133793
56.197133793
56.197133793
56.197133793
56.1971337927
56.1971337784
56.1971329613
56.1970872312
56.1945988128
56.1004521347
19.6207502141
9.60586791997
4.43702727835
2.54553467511
1.63016951229
1.23665707203
1.09422732222
1.04314774696
1.01857362624
1.00043611132
0.984028891588
0.968362088591
0.95314119459
0.938385940253
0.924071041343
0.910188144872
0.896719130061
0.88370076621
0.871029391431
0.85875285557
0.846862502241
0.835348622749
0.824202534623
0.813424326749
0.803051650744
0.792994354842
0.783300302504
0.773962576241
0.764990352143
0.756385940997
0.748190464067
0.740325203538
0.732840244198
0.725737013444
0.719023982093
0.712706362156
0.706831388528
0.701326525151
0.696238393581
0.691570357156
0.687325194556
0.683510018781
0.680127732029
0.677180938449
0.674672926846
0.672600172662
0.671000482112
0.669788111471
0.669106342354
56.1971337932
56.1971337932
56.1971337932
56.1971337932
56.1971337932
56.1971337932
56.1971337932
56.1971337932
56.1971337932
56.1971337932
56.1971337932
56.1971337932
56.1971337932
56.1971337932
56.1971337931
56.1971337924
56.1971337505
56.197131345
56.1969961302
56.1907134472
49.4993815479
17.3495095622
8.28119820165
3.87805738962
2.30899986254
1.56687624526
1.26424439897
1.15617102035
1.11437416887
1.0908838941
1.0719396877
1.05430526856
1.03733520346
1.02090309369
1.00496503552
0.989557584135
0.974560030723
0.960016623267
0.945913700185
0.93223278868
0.918976342564
0.90617335623
0.893725188157
0.881677696209
0.870026749853
0.858760946846
0.847932905964
0.837443293493
0.827341682019
0.817634861902
0.8083210478
0.799399664698
0.790928419897
0.782817601558
0.775123293747
0.767849674764
0.761002102641
0.75459089363
0.748669061633
0.743147963702
0.738084227496
0.733480847355
0.729341495393
0.725671969532
0.722473753879
0.719751771024
0.717502394531
0.715717652507
0.714445513713
0.713662292665
56.1971337933
56.1971337933
56.1971337933
56.1971337933
56.1971337933
56.1971337933
56.1971337933
56.1971337933
56.1971337933
56.1971337933
56.1971337933
56.1971337933
56.1971337933
56.1971337933
56.1971337933
56.1971337911
56.1971336698
56.1971268133
56.1967460706
56.1808297624
37.6664282054
13.9010099424
6.9079156595
3.40744276118
2.11864543729
1.53258467075
1.30436825958
1.2220340157
1.18632015284
1.16321372237
1.14321774013
1.12429650929
1.10604598274
1.08842267177
1.07128776454
1.05467671367
1.03856941987
1.02294885181
1.00785968358
0.993172843181
0.978938102189
0.965147708003
0.951840601564
0.938905791338
0.926400044771
0.914307823966
0.902631984645
0.891421424264
0.880577802087
0.870155540842
0.860157726404
0.850581361458
0.841487263263
0.832777913986
0.824516994602
0.816709239277
0.809360734689
0.802474768062
0.796113682498
0.79018657226
0.784750145882
0.779806255429
0.775361061012
0.771419988238
0.767987214275
0.765062195291
0.762641437596
0.760721587576
0.759356751436
0.758575761792
56.1971337934
56.1971337934
56.1971337934
56.1971337934
56.1971337934
56.1971337934
56.1971337934
56.1971337934
56.1971337934
56.1971337934
56.1971337934
56.1971337934
56.1971337934
56.1971337934
56.1971337933
56.1971337865
56.197133396
56.197111455
56.1959065515
56.1489701614
25.3298954598
11.0035539064
5.24066732553
3.01155270052
1.97376937685
1.52360168936
1.35411432199
1.29017117
1.25851421108
1.23521634348
1.21409925505
1.19390190174
1.1744369919
1.15551566634
1.13718435067
1.11947330266
1.10225191098
1.08556238104
1.06938770309
1.05376277242
1.03856846646
1.02384725419
1.00959357988
0.995850230501
0.982506100652
0.969611092104
0.957163782382
0.945159584798
0.93365312815
0.922535048181
0.91187203082
0.901668677651
0.891925639948
0.882700969647
0.873899584338
0.865580854676
0.857750378355
0.850415519226
0.84364076718
0.837328860487
0.831539376836
0.826274452037
0.821541697093
0.817345411704
0.813687619378
0.810566097858
0.808035830187
0.805988904104
0.804475209326
0.803645991006
56.1971337935
56.1971337935
56.1971337935
56.1971337935
56.1971337935
56.1971337935
56.1971337935
56.1971337935
56.1971337935
56.1971337935
56.1971337935
56.1971337935
56.1971337935
56.1971337935
56.1971337932
56.1971337743
56.1971327209
56.1970750769
56.1939636882
55.4690448673
19.031888701
9.36873557006
4.43620445698
2.68767356863
1.87393354737
1.53695326976
1.41160024742
1.36043091689
1.33082800065
1.30684609037
1.28454867507
1.2630504514
1.24225186667
1.22217385126
1.20265775823
1.18375652217
1.16543594541
1.14774843411
1.1305450999
1.11388249023
1.09780060239
1.0821718925
1.06704726702
1.0524067802
1.03831294924
1.02463924361
1.01144079962
0.998718584456
0.98652791264
0.974751457132
0.963460009425
0.952651530855
0.942388841836
0.932566180243
0.923250396969
0.91444370034
0.906153436484
0.898396770232
0.891236066478
0.884558153291
0.878433854374
0.872868003273
0.867864184675
0.863427250476
0.859555565811
0.85630772499
0.853569443849
0.851400409839
0.849792971641
0.848919685085
56.1971337936
56.1971337936
56.1971337936
56.1971337936
56.1971337936
56.1971337936
56.1971337936
56.1971337936
56.1971337936
56.1971337936
56.1971337936
56.1971337936
56.1971337936
56.1971337936
56.1971337922
56.1971337147
56.1971293809
56.1968918647
56.1868180669
44.1610615903
16.1234590881
7.77202820666
3.80906044862
2.4343392111
1.81414979529
1.56824792145
1.47482855036
1.43186160365
1.40316141561
1.37811608569
1.35441376619
1.33157737938
1.30956151917
1.28818922752
1.26756798199
1.24753353122
1.22813627011
1.20941036054
1.19121334769
1.17359540494
1.15653581816
1.1400807436
1.12409886905
1.10864378832
1.09376832402
1.07934011906
1.06542537729
1.05201550584
1.03916496218
1.02676240736
1.0148719168
1.00348759936
0.992690040871
0.982351878328
0.972552336826
0.963291880624
0.954578395272
0.946478735316
0.93888331506
0.93186701049
0.925429779958
0.919579376996
0.914316552514
0.909709375642
0.90563682813
0.902162384564
0.89928317665
0.896995340496
0.895294185736
0.894376989037
56.1971337937
56.1971337937
56.1971337937
56.1971337937
56.1971337937
56.1971337937
56.1971337937
56.1971337937
56.1971337937
56.1971337937
56.1971337937
56.1971337937
56.1971337937
56.1971337936
56.1971337883
56.1971334918
56.1971171346
56.1962307416
56.1618781961
28.6503063466
11.6373930185
5.8386170022
3.30583993728
2.24597455618
1.78925480413
1.61248535305
1.5413680175
1.5036423037
1.47492179107
1.44869908334
1.42369801965
1.39952162156
1.37614949128
1.35361917419
1.33176145
1.31068188453
1.29022560683
1.27042130397
1.25132385168
1.23276685443
1.2148154962
1.19751320658
1.18070641442
1.16446659904
1.14884017024
1.13369047372
1.11908355035
1.1050070554
1.09153854633
1.07853887265
1.06608110216
1.05415890125
1.04285565609
1.03203772311
1.02178025977
1.01209202239
1.00304534553
0.994513494311
0.986578984369
0.979246405118
0.972522249852
0.966405421318
0.960967016996
0.956083223711
0.951824449786
0.948188071799
0.945171284223
0.942769506649
0.940976631724
0.940017449332
56.1971337938
56.1971337938
56.1971337938
56.1971337938
56.1971337938
56.1971337938
56.1971337938
56.1971337938
56.1971337938
56.1971337938
56.1971337938
56.1971337938
56.1971337938
56.1971337935
56.1971337742
56.1971327173
56.1970759033
56.1941174843
56.0326806079
19.292198731
9.60758440365
4.65919944326
2.91126586573
2.11999294414
1.79318404498
1.66630721994
1.61014431766
1.57520763126
1.54588499965
1.51846515814
1.49205031076
1.46663950171
1.44202273619
1.41830212822
1.39530391626
1.37306821407
1.35163507411
1.33083388015
1.31079077501
1.29133984269
1.27252203217
1.25440092135
1.23681367932
1.21981671014
1.20348282019
1.18764976708
1.17238417079
1.15776304914
1.14362702488
1.13006222326
1.117065791
1.10471347199
1.09286027166
1.0815952424
1.07091926665
1.06090451404
1.05142202425
1.04255424839
1.03430550235
1.0266779317
1.01975426647
1.01339416531
1.0076750534
1.00259968775
0.998170260489
0.994381563134
0.991232872353
0.988719604841
0.986834708663
0.985899023148
56.1971337939
56.1971337939
56.1971337939
56.1971337939
56.1971337939
56.1971337939
56.1971337939
56.1971337939
56.1971337939
56.1971337939
56.1971337939
56.1971337939
56.1971337938
56.1971337921
56.1971336948
56.1971283645
56.1968415599
56.1851690651
42.3918004818
15.7730126911
7.74683033312
3.91238408137
2.62001860837
2.04873155625
1.8199843347
1.72737810315
1.68036358435
1.64640261033
1.61604160981
1.58718989479
1.55950663093
1.53281049239
1.5069675986
1.48201673402
1.45799507493
1.43470931844
1.41227871036
1.3905274677
1.36957073767
1.34924778066
1.3296011309
1.31069793252
1.29236012834
1.27473473599
1.2576460668
1.24116734562
1.2252912443
1.21008716142
1.19540361405
1.18131592314
1.16789819973
1.15499487758
1.14270491312
1.13102129068
1.12003009303
1.10958110081
1.09976559471
1.09057861203
1.08211511717
1.07422114296
1.06698328717
1.06040399178
1.05448749396
1.04922955288
1.04471212861
1.0407787597
1.03750841305
1.03489244607
1.03292224897
1.03188199146
56.1971337939
56.1971337939
56.1971337939
56.1971337939
56.1971337939
56.1971337939
56.1971337939
56.1971337939
56.1971337939
56.1971337939
56.1971337939
56.1971337939
56.1971337938
56.1971337853
56.1971333136
56.1971077371
56.1957516263
56.1460121866
24.8701935437
11.0767748588
5.52271445102
3.35749687088
2.41892079606
2.02061969037
1.86244055011
1.79243538874
1.75070748763
1.71664143157
1.6851150301
1.65486558552
1.62585964204
1.59782644528
1.57088594126
1.54480735114
1.51972717949
1.4954344081
1.47205022495
1.44938765186
1.42758274572
1.40643081186
1.38608928592
1.36636186223
1.34731310356
1.32901424477
1.3112806934
1.2942004441
1.27783792258
1.2620171478
1.24681812618
1.23233313121
1.21837977224
1.2050516657
1.19243679226
1.18037575762
1.16895556756
1.15817973009
1.14813641911
1.13866338839
1.12985861084
1.12172621796
1.11426913525
1.10748800514
1.10147063707
1.09604865053
1.09130851042
1.08724799725
1.08386388559
1.08114917143
1.07909410153
1.07802028811
56.197133794
56.197133794
56.197133794
56.197133794
56.197133794
56.197133794
56.197133794
56.197133794
56.197133794
56.197133794
56.197133794
56.197133794
56.1971337932
56.1971337479
56.1971312479
56.1969962377
56.1909724156
50.4893013374
17.8184736055
8.84918871707
4.44003548091
2.95515322283
2.29683905785
2.02708002181
1.91574215498
1.85987598363
1.82040086451
1.78569292917
1.75277368301
1.72128182111
1.69099227727
1.6617365783
1.63364340338
1.60648721206
1.58039364626
1.55514308517
1.53086268749
1.50733797454
1.48472401595
1.46280363677
1.44173674956
1.42131799
1.40169956966
1.38269501166
1.36437875168
1.34682388124
1.3298419125
1.3135150497
1.29794102021
1.28292836221
1.26856526298
1.25494177611
1.24188246004
1.22948872938
1.21775635563
1.20677639737
1.19637579935
1.18665661544
1.17761849074
1.16936506994
1.16170968355
1.15475181552
1.14848805908
1.14292054942
1.13804860061
1.13386591566
1.13046068146
1.12764499939
1.12550333217
1.12439202283
56.1971337941
56.1971337941
56.1971337941
56.1971337941
56.1971337941
56.1971337941
56.1971337941
56.1971337941
56.1971337941
56.1971337941
56.1971337941
56.197133794
56.197133789
56.1971335131
56.1971185967
56.1963307001
56.1672425238
30.8787638341
12.142943627
6.7259332106
3.71474584841
2.68189092273
2.23813061776
2.05735499069
1.97628114107
1.92799206855
1.88909229023
1.85327384185
1.81902331908
1.78624102693
1.75472383218
1.72432983859
1.69515700693
1.66706393646
1.6399058664
1.61383288449
1.58860584805
1.56438548443
1.5409222233
1.51838551502
1.49655439576
1.47559434021
1.45529150195
1.43571724393
1.41696524679
1.39881580254
1.38135863028
1.36468568502
1.34859914648
1.33318585202
1.3185486244
1.30448711614
1.29110773314
1.27850929854
1.26649893465
1.25517735171
1.24454211735
1.2347071338
1.22546769445
1.21693924238
1.20911956153
1.20200404105
1.19569851183
1.18999767181
1.18500730145
1.18072100728
1.17712768445
1.17422317606
1.17199524636
1.17084935702
56.1971337941
56.1971337941
56.1971337941
56.1971337941
56.1971337941
56.1971337941
56.1971337941
56.1971337941
56.1971337941
56.1971337941
56.1971337941
56.1971337936
56.1971337642
56.197132151
56.1970445905
56.1927559918
53.7178440357
18.7113436113
9.44171381348
4.80044918521
3.21234048853
2.51652838806
2.22600026874
2.10330218587
2.04014050055
1.99547829656
1.95617015271
1.91910340453
1.88356838659
1.84956228243
1.81691080495
1.78543303063
1.75525222525
1.7262250122
1.69818925846
1.67128191082
1.64526466219
1.62029172386
1.59623324374
1.57294009125
1.55049438352
1.52896347844
1.50811858409
1.48814554224
1.46881432454
1.45031898258
1.43244756047
1.41528707152
1.39893649099
1.38318221996
1.36812738783
1.35387761921
1.34021985802
1.3272670477
1.31501342867
1.30357440571
1.29273936505
1.28261784108
1.27321059614
1.26463182165
1.25666596149
1.24942384728
1.24289896165
1.23709474958
1.23199728184
1.22771508923
1.22402824181
1.22103592605
1.21872419271
1.21754502738
56.1971337942
56.1971337942
56.1971337942
56.1971337942
56.1971337942
56.1971337942
56.1971337942
56.1971337942
56.1971337942
56.1971337942
56.1971337941
56.1971337896
56.1971335475
56.1971206884
56.1964494635
56.1717503421
32.5771468004
12.5301084156
7.13337407313
3.93071911678
2.88584963519
2.43442110718
2.24644308929
2.15899590403
2.10532524788
2.06170325666
2.02140171632
1.98305824692
1.94627606511
1.91112185719
1.87740932194
1.8450446984
1.81385301423
1.78395571229
1.75521422214
1.72745281408
1.70083925033
1.6750976407
1.6504172158
1.6265374448
1.60363993293
1.58148152991
1.56026029824
1.53973281627
1.5201011052
1.50111802395
1.4828824569
1.4654961058
1.44872744501
1.43268271763
1.41747444628
1.40287682072
1.38899134185
1.37594265766
1.36349865642
1.35177222431
1.3408850364
1.3306130271
1.32106996695
1.31225601893
1.30416622596
1.2969303971
1.29029825679
1.28439400684
1.27920994688
1.27473577876
1.27096694108
1.26789056144
1.26549304881
1.26428076592
56.1971337942
56.1971337942
56.1971337942
56.1971337942
56.1971337942
56.1971337942
56.1971337942
56.1971337942
56.1971337942
56.1971337942
56.1971337936
56.1971337594
56.1971319031
56.1970326856
56.1923553111
53.1798229891
18.6321533022
9.48326682477
4.92003418864
3.36773816556
2.69469891693
2.41122248546
2.2866992505
2.21916819733
2.16976793369
2.12583704126
2.08442020963
2.04491507688
2.00711948074
1.97092175107
1.93611212249
1.9028363083
1.87090796334
1.8401517204
1.81068946382
1.7823748271
1.75502675882
1.72881995596
1.70348021398
1.67921390232
1.65573547192
1.63325279369
1.61150248326
1.59070163035
1.5705873227
1.55138961821
1.53285339945
1.51508029952
1.49818194649
1.48190446227
1.46636576953
1.4516940329
1.43762917273
1.42429997495
1.41182778318
1.39997272647
1.38885321767
1.37846511565
1.36894370849
1.36002961632
1.35186268943
1.34442350169
1.3377151072
1.33172766404
1.32659085335
1.32203416952
1.31818574931
1.31502562655
1.3125408975
1.31129512715
56.1971337942
56.1971337942
56.1971337942
56.1971337942
56.1971337942
56.1971337942
56.1971337942
56.1971337942
56.1971337942
56.1971337941
56.1971337875
56.1971334361
56.1971150803
56.1961785357
56.1633542391
29.5970359697
12.0757623417
6.97760902809
3.98596864867
3.02047877348
2.60491234421
2.42643232362
2.33824458182
2.28063509655
2.23236074668
2.18758617087
2.1450666458
2.10448742102
2.06569576101
2.02858835338
1.99304277583
1.95899235511
1.9262060506
1.89485856826
1.86476738323
1.83575816566
1.80799252418
1.78117575477
1.75550781831
1.73069265468
1.7069529801
1.68398514839
1.66202664522
1.64079396886
1.62052401575
1.60094135741
1.58227846684
1.56428203004
1.54704792201
1.53072219096
1.51502274952
1.50008582814
1.48602247465
1.47258112052
1.45988277476
1.44806080458
1.43685760383
1.4264041444
1.41668810164
1.40771203951
1.3996109523
1.39210910261
1.38534525912
1.37930050523
1.37396934926
1.36934030515
1.36555265398
1.36230667492
1.35973242243
1.35845206238
56.1971337943
56.1971337943
56.1971337943
56.1971337943
56.1971337943
56.1971337943
56.1971337943
56.1971337943
56.1971337943
56.1971337929
56.19713372
56.1971299137
56.196935534
56.1891477481
48.2178866885
17.5072919094