/*--------------------------------*- C++ -*----------------------------------*\
| =========                 |                                                 |
| \\      /  F ield         | foam-extend: Open Source CFD                    |
|  \\    /   O peration     | Version:     4.1                                |
|   \\  /    A nd           | Web:         http://www.foam-extend.org         |
|    \\/     M anipulation  |                                                 |
\*---------------------------------------------------------------------------*/
FoamFile
{
    version     2.0;
    format      ascii;
    class       volScalarField;
    location    "0.0006";
    object      mu;
}
// * * * * * * * * * * * * * * * * * * * * * * * * * * * * * * * * * * * * * //

dimensions      [1 -1 -1 0 0 0 0];

internalField   nonuniform List<scalar> 
8400
(
1.68899961491e-05
1.68899961491e-05
1.68899961491e-05
1.68899961491e-05
1.68899961491e-05
1.68899961491e-05
1.68899961491e-05
1.68899961491e-05
1.68899961491e-05
1.68899961491e-05
1.68899961491e-05
1.68899961491e-05
1.68899961491e-05
1.68899961491e-05
1.68899961491e-05
1.68899961491e-05
1.68899961491e-05
1.68899961491e-05
1.68899961491e-05
1.68899961494e-05
1.68899961681e-05
1.68899972207e-05
1.68900574965e-05
1.6891312024e-05
2.61742110586e-05
0.000102180744634
0.000185171176637
0.000137321976226
8.21859300527e-05
6.3748554468e-05
5.76984153896e-05
5.57728690394e-05
5.51379007361e-05
5.48845712012e-05
5.47460572466e-05
5.46358443134e-05
5.45361675112e-05
5.44416897597e-05
5.43499360886e-05
5.42595241432e-05
5.41695326354e-05
5.40782055492e-05
5.39961661804e-05
5.38997968225e-05
5.38002654307e-05
5.36964968252e-05
5.35879132442e-05
5.3473932453e-05
5.33542437891e-05
5.32292216892e-05
5.30985649766e-05
5.29622934884e-05
5.2820896605e-05
5.26745309232e-05
5.25238013915e-05
5.23817407006e-05
5.22266006294e-05
5.20710291397e-05
5.19166419755e-05
5.17654383549e-05
5.16201869333e-05
5.14818461857e-05
5.13529554034e-05
5.12350261478e-05
5.11300051676e-05
5.10396742248e-05
5.0965500227e-05
5.09087113691e-05
5.08703536342e-05
5.08321761846e-05
1.68899961489e-05
1.68899961489e-05
1.68899961489e-05
1.68899961489e-05
1.68899961489e-05
1.68899961489e-05
1.68899961489e-05
1.68899961489e-05
1.68899961489e-05
1.68899961489e-05
1.68899961489e-05
1.68899961489e-05
1.68899961489e-05
1.68899961489e-05
1.68899961489e-05
1.68899961489e-05
1.68899961489e-05
1.68899961489e-05
1.6889996149e-05
1.68899961506e-05
1.68899962478e-05
1.68900016545e-05
1.68903067671e-05
1.68943527576e-05
5.79489056525e-05
0.000148698643766
0.000208242524312
0.000106487319646
7.13926075764e-05
5.95647790234e-05
5.58833750418e-05
5.47719025875e-05
5.44307672543e-05
5.43019234247e-05
5.4227352009e-05
5.41598156953e-05
5.40914421921e-05
5.40202833496e-05
5.39458183621e-05
5.38682418969e-05
5.37866444582e-05
5.37006876385e-05
5.36100409949e-05
5.3514306875e-05
5.34133696211e-05
5.33074696239e-05
5.31956688146e-05
5.30777850217e-05
5.29537184224e-05
5.28238945137e-05
5.26888200105e-05
5.25483580207e-05
5.24032530993e-05
5.22538543868e-05
5.21010690693e-05
5.19464892638e-05
5.17916098834e-05
5.16372828203e-05
5.14851733482e-05
5.13378820114e-05
5.11967654363e-05
5.10635072485e-05
5.09397664082e-05
5.08274847053e-05
5.07286554052e-05
5.06440521974e-05
5.05748691205e-05
5.05222889157e-05
5.04867029534e-05
5.04548327706e-05
1.68899961489e-05
1.68899961489e-05
1.68899961489e-05
1.68899961489e-05
1.68899961489e-05
1.68899961489e-05
1.68899961489e-05
1.68899961489e-05
1.68899961489e-05
1.68899961489e-05
1.68899961489e-05
1.68899961489e-05
1.68899961489e-05
1.68899961489e-05
1.68899961489e-05
1.68899961489e-05
1.68899961489e-05
1.68899961489e-05
1.6889996149e-05
1.68899961579e-05
1.6889996663e-05
1.68900256428e-05
1.68908656717e-05
2.06375368564e-05
8.99515023597e-05
0.000171473519323
0.000153194378459
8.66382019395e-05
6.43995461457e-05
5.71605499322e-05
5.49711299233e-05
5.43234770792e-05
5.41400806876e-05
5.40564887258e-05
5.40033922656e-05
5.39510285152e-05
5.38958506117e-05
5.38363612319e-05
5.3772084566e-05
5.37028044027e-05
5.36170739876e-05
5.35367681119e-05
5.34504908169e-05
5.3358699443e-05
5.32605204652e-05
5.31558041845e-05
5.30444487275e-05
5.29263833488e-05
5.28026470949e-05
5.2672636105e-05
5.25366695716e-05
5.23953170594e-05
5.22500824079e-05
5.21013483377e-05
5.19501486821e-05
5.18082457195e-05
5.16552812964e-05
5.15037542353e-05
5.13563088225e-05
5.12135982787e-05
5.10775419669e-05
5.09494724107e-05
5.08315963213e-05
5.07251936111e-05
5.06313212524e-05
5.0551509871e-05
5.04864354554e-05
5.04368526365e-05
5.04032935704e-05
5.03748942788e-05
1.68899961488e-05
1.68899961488e-05
1.68899961488e-05
1.68899961488e-05
1.68899961488e-05
1.68899961488e-05
1.68899961488e-05
1.68899961488e-05
1.68899961488e-05
1.68899961488e-05
1.68899961488e-05
1.68899961488e-05
1.68899961488e-05
1.68899961488e-05
1.68899961488e-05
1.68899961488e-05
1.68899961488e-05
1.68899961489e-05
1.68899961496e-05
1.68899961923e-05
1.68899985932e-05
1.68901363662e-05
1.68924250385e-05
3.80902683849e-05
0.000134842783922
0.00021851567582
0.000119891397507
7.55627273057e-05
6.0752607314e-05
5.61018439619e-05
5.47080730063e-05
5.42916100037e-05
5.41609161712e-05
5.40963281156e-05
5.40403339324e-05
5.39830360944e-05
5.39225007282e-05
5.38581678132e-05
5.37892952967e-05
5.37154812806e-05
5.36364063076e-05
5.35405677867e-05
5.34500298592e-05
5.33538794578e-05
5.32511546086e-05
5.31417971444e-05
5.30257647351e-05
5.29030638925e-05
5.27747737582e-05
5.26403668179e-05
5.25001854065e-05
5.23669210163e-05
5.22182064625e-05
5.20663511999e-05
5.19132018707e-05
5.17594639117e-05
5.16062747067e-05
5.14551165253e-05
5.1308690257e-05
5.11674765045e-05
5.10334189434e-05
5.0907774693e-05
5.07926137713e-05
5.06890054634e-05
5.059783545e-05
5.052041533e-05
5.04574653549e-05
5.04095622535e-05
5.03771506175e-05
5.03506300187e-05
1.68899961488e-05
1.68899961488e-05
1.68899961488e-05
1.68899961488e-05
1.68899961488e-05
1.68899961488e-05
1.68899961488e-05
1.68899961488e-05
1.68899961488e-05
1.68899961488e-05
1.68899961488e-05
1.68899961488e-05
1.68899961488e-05
1.68899961488e-05
1.68899961488e-05
1.68899961488e-05
1.68899961488e-05
1.68899961489e-05
1.68899961512e-05
1.68899962847e-05
1.68900037181e-05
1.68904207761e-05
1.689559485e-05
6.86366298265e-05
0.000153695095448
0.000194569237343
0.000100912136827
6.94878135212e-05
5.90175379016e-05
5.57978515278e-05
5.48253593852e-05
5.45343093435e-05
5.44137565627e-05
5.43388038762e-05
5.42685947079e-05
5.41971340656e-05
5.4122839076e-05
5.40449557462e-05
5.39629178113e-05
5.3877104549e-05
5.37862930459e-05
5.3690176921e-05
5.35882817842e-05
5.34803881522e-05
5.33666361139e-05
5.32470583363e-05
5.31211070916e-05
5.29889047736e-05
5.28506075225e-05
5.2707749158e-05
5.25598252052e-05
5.24080015483e-05
5.22526320291e-05
5.20947420835e-05
5.19358101398e-05
5.17777898926e-05
5.16211121681e-05
5.14671419281e-05
5.13179298657e-05
5.11751813695e-05
5.10400164903e-05
5.09138198327e-05
5.08094130622e-05
5.07053647611e-05
5.06140808372e-05
5.05365370663e-05
5.04738610531e-05
5.04263982722e-05
5.03942588702e-05
5.03687164564e-05
1.68899961488e-05
1.68899961488e-05
1.68899961488e-05
1.68899961488e-05
1.68899961488e-05
1.68899961488e-05
1.68899961488e-05
1.68899961488e-05
1.68899961488e-05
1.68899961488e-05
1.68899961488e-05
1.68899961488e-05
1.68899961488e-05
1.68899961488e-05
1.68899961488e-05
1.68899961488e-05
1.68899961488e-05
1.68899961489e-05
1.68899961558e-05
1.6889996556e-05
1.68900195519e-05
1.68907818594e-05
1.95262547946e-05
8.71418625809e-05
0.000168230622028
0.000160208118921
8.95916786761e-05
6.60096529816e-05
5.82998821201e-05
5.59399514069e-05
5.52081653092e-05
5.49711284801e-05
5.48416336084e-05
5.47456070659e-05
5.46537782853e-05
5.45612342505e-05
5.44666576985e-05
5.43695873478e-05
5.42691593193e-05
5.41648505044e-05
5.40561498174e-05
5.39426107457e-05
5.38248053416e-05
5.37014827815e-05
5.35724326054e-05
5.34375558649e-05
5.32973598964e-05
5.31519166698e-05
5.30010054888e-05
5.28451159254e-05
5.26856173454e-05
5.2522967076e-05
5.23578988191e-05
5.21911301333e-05
5.2023853653e-05
5.18575824862e-05
5.17050942529e-05
5.15455383682e-05
5.13914639782e-05
5.12439523287e-05
5.11045866641e-05
5.09751245857e-05
5.0857216103e-05
5.07512115157e-05
5.06584141956e-05
5.05796934266e-05
5.05158201384e-05
5.0467345534e-05
5.04345856113e-05
5.04093529764e-05
1.68899961488e-05
1.68899961488e-05
1.68899961488e-05
1.68899961488e-05
1.68899961488e-05
1.68899961488e-05
1.68899961488e-05
1.68899961488e-05
1.68899961488e-05
1.68899961488e-05
1.68899961488e-05
1.68899961488e-05
1.68899961488e-05
1.68899961488e-05
1.68899961488e-05
1.68899961488e-05
1.68899961488e-05
1.68899961491e-05
1.68899961683e-05
1.68899972517e-05
1.68900595756e-05
1.68913547715e-05
2.65913855614e-05
0.000103417229172
0.000186418318252
0.000135993932196
8.20550616034e-05
6.39399964168e-05
5.8152605669e-05
5.63541057478e-05
5.5781881207e-05
5.55571634167e-05
5.54079371705e-05
5.52858635507e-05
5.51677975667e-05
5.50494997106e-05
5.4929931975e-05
5.48084063336e-05
5.46848579437e-05
5.4558648986e-05
5.44289532775e-05
5.42953986979e-05
5.41572634875e-05
5.4014231504e-05
5.38662940376e-05
5.37140875191e-05
5.35566750934e-05
5.33941445195e-05
5.32274062431e-05
5.30569747839e-05
5.28942922307e-05
5.27178629214e-05
5.25395674992e-05
5.23606298489e-05
5.21828409069e-05
5.20067397129e-05
5.18336924994e-05
5.16661437705e-05
5.1504605575e-05
5.13510073896e-05
5.12063045364e-05
5.10719593482e-05
5.09491719541e-05
5.08394876304e-05
5.07551444281e-05
5.06735990974e-05
5.06076255352e-05
5.05576507003e-05
5.05238616101e-05
5.0498106974e-05
1.68899961488e-05
1.68899961488e-05
1.68899961488e-05
1.68899961488e-05
1.68899961488e-05
1.68899961488e-05
1.68899961488e-05
1.68899961488e-05
1.68899961488e-05
1.68899961488e-05
1.68899961488e-05
1.68899961488e-05
1.68899961488e-05
1.68899961488e-05
1.68899961488e-05
1.68899961488e-05
1.68899961488e-05
1.68899961497e-05
1.68899962015e-05
1.68899991202e-05
1.68901668121e-05
1.68928156487e-05
4.25560350291e-05
0.000138606022956
0.000220829514543
0.00011898346031
7.69587053385e-05
6.28458413824e-05
5.83325210323e-05
5.69303178622e-05
5.64566434614e-05
5.62478966238e-05
5.60911581601e-05
5.59321900256e-05
5.57865758172e-05
5.56410324035e-05
5.54943352442e-05
5.5346211187e-05
5.51970373538e-05
5.50458679944e-05
5.48916110046e-05
5.47338249067e-05
5.45732754565e-05
5.44084960595e-05
5.42509662713e-05
5.40776697477e-05
5.38999509718e-05
5.37186646221e-05
5.35339646027e-05
5.33457630629e-05
5.31551368595e-05
5.29634283286e-05
5.27710626919e-05
5.25787634144e-05
5.23876813339e-05
5.21998371158e-05
5.20162428616e-05
5.18495105333e-05
5.16788122556e-05
5.1516938381e-05
5.1364731569e-05
5.12236152955e-05
5.10950465996e-05
5.09806771447e-05
5.08806811527e-05
5.07960147471e-05
5.07274894339e-05
5.06754547157e-05
5.06402160687e-05
5.06137622318e-05
1.68899961488e-05
1.68899961488e-05
1.68899961488e-05
1.68899961488e-05
1.68899961488e-05
1.68899961488e-05
1.68899961488e-05
1.68899961488e-05
1.68899961488e-05
1.68899961488e-05
1.68899961488e-05
1.68899961488e-05
1.68899961488e-05
1.68899961488e-05
1.68899961488e-05
1.68899961488e-05
1.68899961488e-05
1.68899961508e-05
1.68899962687e-05
1.6890002824e-05
1.68903704583e-05
1.68950687471e-05
6.34347530854e-05
0.000151108403416
0.000203954702766
0.000106880089999
7.35353775768e-05
6.23760353316e-05
5.88516381352e-05
5.76912521254e-05
5.7271925827e-05
5.70478748747e-05
5.68621627492e-05
5.66844597284e-05
5.65094036465e-05
5.63345970982e-05
5.61595542291e-05
5.59832938962e-05
5.58056693918e-05
5.56270300035e-05
5.54458702775e-05
5.5261782514e-05
5.50760138498e-05
5.48870442097e-05
5.46948923397e-05
5.44989590083e-05
5.4299452068e-05
5.40976208436e-05
5.38925308246e-05
5.36849940768e-05
5.34766956093e-05
5.32671020525e-05
5.30695580118e-05
5.28619459504e-05
5.26565398116e-05
5.24548302163e-05
5.22589879254e-05
5.20694347113e-05
5.18878255559e-05
5.17166972082e-05
5.15562594527e-05
5.14081296803e-05
5.12731535664e-05
5.11641433702e-05
5.10587239571e-05
5.09697965088e-05
5.08979797356e-05
5.08434212353e-05
5.08064196804e-05
5.07792280606e-05
1.68899961488e-05
1.68899961488e-05
1.68899961488e-05
1.68899961488e-05
1.68899961488e-05
1.68899961488e-05
1.68899961488e-05
1.68899961488e-05
1.68899961488e-05
1.68899961488e-05
1.68899961488e-05
1.68899961488e-05
1.68899961488e-05
1.68899961488e-05
1.68899961488e-05
1.68899961488e-05
1.68899961488e-05
1.6889996153e-05
1.68899963961e-05
1.68900103319e-05
1.68906479753e-05
1.77918929469e-05
8.14559578557e-05
0.00016181806122
0.000176559253736
9.77847331052e-05
7.1273080197e-05
6.23534184959e-05
5.955705923e-05
5.8611812635e-05
5.82070979246e-05
5.79561285203e-05
5.77353984159e-05
5.75221826792e-05
5.73114370874e-05
5.71032411357e-05
5.68956479848e-05
5.66877768332e-05
5.64804955967e-05
5.62723243278e-05
5.60627822926e-05
5.58510354424e-05
5.56375253268e-05
5.54218268312e-05
5.52031018983e-05
5.49824510135e-05
5.4759556061e-05
5.45461811098e-05
5.43198285174e-05
5.4091662133e-05
5.38626048491e-05
5.36346697818e-05
5.34074353438e-05
5.31829010586e-05
5.29623115955e-05
5.27466212435e-05
5.25480530979e-05
5.23461009051e-05
5.21536536821e-05
5.19714567765e-05
5.18009389826e-05
5.16443088872e-05
5.15019836591e-05
5.13752830204e-05
5.1264885078e-05
5.11715268427e-05
5.10958648908e-05
5.10383440018e-05
5.09992101369e-05
5.09707637992e-05
1.68899961488e-05
1.68899961488e-05
1.68899961488e-05
1.68899961488e-05
1.68899961488e-05
1.68899961488e-05
1.68899961488e-05
1.68899961488e-05
1.68899961488e-05
1.68899961488e-05
1.68899961488e-05
1.68899961488e-05
1.68899961488e-05
1.68899961488e-05
1.68899961488e-05
1.68899961488e-05
1.6889996149e-05
1.68899961607e-05
1.68899968241e-05
1.68900346387e-05
1.68910132606e-05
2.20411450901e-05
9.28496620448e-05
0.000173899360025
0.00015417363236
9.08894416746e-05
6.97470962306e-05
6.27496323938e-05
6.04789909669e-05
5.96489883926e-05
5.92522382641e-05
5.89656872266e-05
5.87029541174e-05
5.84493946388e-05
5.81997657933e-05
5.79541940799e-05
5.77110998632e-05
5.74693348128e-05
5.72278106321e-05
5.69875677069e-05
5.67466182331e-05
5.65047881025e-05
5.62737063201e-05
5.60298872016e-05
5.57840045062e-05
5.55365543057e-05
5.52881774128e-05
5.50388003722e-05
5.47878898448e-05
5.45373808239e-05
5.42875999058e-05
5.40505073276e-05
5.38046750896e-05
5.35625971056e-05
5.33247076442e-05
5.30926190269e-05
5.28686643048e-05
5.26530481807e-05
5.24478347391e-05
5.22668698677e-05
5.20866508955e-05
5.19207038562e-05
5.17698892279e-05
5.16353613688e-05
5.15189409689e-05
5.14207049592e-05
5.13411358464e-05
5.12807646055e-05
5.1239645129e-05
5.12103158173e-05
1.68899961488e-05
1.68899961488e-05
1.68899961488e-05
1.68899961488e-05
1.68899961488e-05
1.68899961488e-05
1.68899961488e-05
1.68899961488e-05
1.68899961488e-05
1.68899961488e-05
1.68899961488e-05
1.68899961488e-05
1.68899961488e-05
1.68899961488e-05
1.68899961488e-05
1.68899961488e-05
1.68899961493e-05
1.6889996178e-05
1.68899978029e-05
1.68900913176e-05
1.68918312772e-05
3.18409796842e-05
0.00011888747163
0.000193872181332
0.000135556764754
8.5607115757e-05
6.8885590606e-05
6.33747524434e-05
6.15340278834e-05
6.0808133378e-05
6.03945355706e-05
6.00666665252e-05
5.97592681126e-05
5.94615072888e-05
5.91705257912e-05
5.88840354869e-05
5.86009562435e-05
5.83335391576e-05
5.80564207074e-05
5.77802191424e-05
5.75058073597e-05
5.72314019515e-05
5.69571478142e-05
5.66833336419e-05
5.6408865821e-05
5.61328945264e-05
5.58694815699e-05
5.5593734555e-05
5.53186756707e-05
5.50440553707e-05
5.47708213626e-05
5.45007301324e-05
5.42343096823e-05
5.39720983444e-05
5.37288592735e-05
5.34806507576e-05
5.32410473223e-05
5.30109087853e-05
5.27932127055e-05
5.25883238054e-05
5.23975363764e-05
5.22216052753e-05
5.20749706015e-05
5.19330838702e-05
5.18097684347e-05
5.17060827102e-05
5.1622383185e-05
5.15586155292e-05
5.15149633985e-05
5.14842832946e-05
1.68899961488e-05
1.68899961488e-05
1.68899961488e-05
1.68899961488e-05
1.68899961488e-05
1.68899961488e-05
1.68899961488e-05
1.68899961488e-05
1.68899961488e-05
1.68899961488e-05
1.68899961488e-05
1.68899961488e-05
1.68899961488e-05
1.68899961488e-05
1.68899961488e-05
1.68899961488e-05
1.68899961501e-05
1.68899962265e-05
1.68900004709e-05
1.68902390469e-05
1.68936620566e-05
4.98253753007e-05
0.000143669284529
0.00022074097744
0.000120616965589
8.17847581644e-05
6.85546503763e-05
6.42342631043e-05
6.27094745792e-05
6.20527764641e-05
6.16190690394e-05
6.12497268687e-05
6.08971897743e-05
6.05538001035e-05
6.0228595536e-05
5.98979258434e-05
5.95733913903e-05
5.92526520146e-05
5.89366874661e-05
5.86230648728e-05
5.8312532454e-05
5.80040676348e-05
5.77086035192e-05
5.74016480656e-05
5.70957156704e-05
5.67911636738e-05
5.64869839504e-05
5.61837130426e-05
5.58823789698e-05
5.55950763449e-05
5.5298605065e-05
5.50061000907e-05
5.47174778993e-05
5.44357621548e-05
5.41613136097e-05
5.38947519535e-05
5.36512373121e-05
5.34058155257e-05
5.31744367412e-05
5.29570757798e-05
5.27547722903e-05
5.25685911441e-05
5.24005617338e-05
5.22516001931e-05
5.21221902218e-05
5.2025444422e-05
5.19365298578e-05
5.18689863848e-05
5.18229946168e-05
5.17912448906e-05
1.68899961488e-05
1.68899961488e-05
1.68899961488e-05
1.68899961488e-05
1.68899961488e-05
1.68899961488e-05
1.68899961488e-05
1.68899961488e-05
1.68899961488e-05
1.68899961488e-05
1.68899961488e-05
1.68899961488e-05
1.68899961488e-05
1.68899961488e-05
1.68899961488e-05
1.68899961488e-05
1.68899961519e-05
1.68899963259e-05
1.68900058215e-05
1.68905216803e-05
1.68967099082e-05
7.39948853001e-05
0.000155287341224
0.000197470752923
0.000109334399502
7.90254761259e-05
6.8746766672e-05
6.5318396957e-05
6.40334969029e-05
6.34072769871e-05
6.29352932977e-05
6.2515907721e-05
6.21248411025e-05
6.17307065154e-05
6.13465985934e-05
6.09696090723e-05
6.06004195618e-05
6.02367081647e-05
5.98908673807e-05
5.95365936675e-05
5.91865481192e-05
5.88404647608e-05
5.84978870985e-05
5.81570062664e-05
5.78187744542e-05
5.74947650475e-05
5.71604939033e-05
5.68291747515e-05
5.64998428822e-05
5.61745700052e-05
5.58537552974e-05
5.55497120791e-05
5.52395219749e-05
5.49371837246e-05
5.46427709871e-05
5.4358280057e-05
5.40853592291e-05
5.38372676896e-05
5.35908323279e-05
5.33600724284e-05
5.31456768564e-05
5.29486716407e-05
5.27714793182e-05
5.26141406397e-05
5.24780008963e-05
5.23632722029e-05
5.22702050757e-05
5.22121911743e-05
5.21631980691e-05
5.21299761582e-05
1.68899961488e-05
1.68899961488e-05
1.68899961488e-05
1.68899961488e-05
1.68899961488e-05
1.68899961488e-05
1.68899961488e-05
1.68899961488e-05
1.68899961488e-05
1.68899961488e-05
1.68899961488e-05
1.68899961488e-05
1.68899961488e-05
1.68899961488e-05
1.68899961488e-05
1.68899961489e-05
1.68899961579e-05
1.68899966671e-05
1.68900252258e-05
1.68908957014e-05
2.02105464624e-05
8.83518061614e-05
0.000167991575868
0.000169592853709
0.000100659723481
7.73008129542e-05
6.93623412012e-05
6.66253030532e-05
6.55059922582e-05
6.48642308794e-05
6.43521607496e-05
6.38754743504e-05
6.34152505166e-05
6.29679736548e-05
6.25312058143e-05
6.21180941123e-05
6.17004544026e-05
6.12911030982e-05
6.08893989856e-05
6.04927660705e-05
6.01030428807e-05
5.9729872454e-05
5.93482605551e-05
5.89709064597e-05
5.85979076157e-05
5.82280024268e-05
5.78756875752e-05
5.75141976773e-05
5.71560583644e-05
5.68042367108e-05
5.6457688541e-05
5.61169704071e-05
5.57970376989e-05
5.5472953284e-05
5.51590308286e-05
5.48561544032e-05
5.4565145152e-05
5.42890107878e-05
5.40417338093e-05
5.37969262279e-05
5.35700945967e-05
5.33628599138e-05
5.31759163671e-05
5.30099316163e-05
5.28658704807e-05
5.27444057687e-05
5.26461813709e-05
5.25710288694e-05
5.25329947554e-05
5.24844009389e-05
1.68899961488e-05
1.68899961488e-05
1.68899961488e-05
1.68899961488e-05
1.68899961488e-05
1.68899961488e-05
1.68899961488e-05
1.68899961488e-05
1.68899961488e-05
1.68899961488e-05
1.68899961488e-05
1.68899961488e-05
1.68899961488e-05
1.68899961488e-05
1.68899961488e-05
1.68899961492e-05
1.68899961753e-05
1.688999762e-05
1.68900785322e-05
1.68916476006e-05
2.89158424989e-05
0.000108106566049
0.000185734022008
0.000146928666036
9.41938168543e-05
7.63289805772e-05
7.02899411167e-05
6.81045853881e-05
6.70778366699e-05
6.64164111859e-05
6.58417901447e-05
6.52989886572e-05
6.47770417191e-05
6.42838119099e-05
6.37916897383e-05
6.33127431898e-05
6.28447876145e-05
6.23863705906e-05
6.19519270195e-05
6.15109662713e-05
6.10775903585e-05
6.06513424179e-05
6.02448707e-05
5.98294638244e-05
5.94205252781e-05
5.90157892675e-05
5.86170517369e-05
5.82370039591e-05
5.78493900875e-05
5.74684731731e-05
5.70957250097e-05
5.67299796249e-05
5.63877218324e-05
5.60407506523e-05
5.57060476754e-05
5.53843725426e-05
5.50767905906e-05
5.47836597493e-05
5.45212291894e-05
5.42632739528e-05
5.40246808317e-05
5.38066805637e-05
5.36097247737e-05
5.34348799524e-05
5.32839446211e-05
5.31565656394e-05
5.30533364282e-05
5.29744959484e-05
5.29344409613e-05
5.28982782158e-05
1.68899961488e-05
1.68899961488e-05
1.68899961488e-05
1.68899961488e-05
1.68899961488e-05
1.68899961488e-05
1.68899961488e-05
1.68899961488e-05
1.68899961488e-05
1.68899961488e-05
1.68899961488e-05
1.68899961488e-05
1.68899961488e-05
1.68899961488e-05
1.68899961488e-05
1.68899961503e-05
1.68899962346e-05
1.68900008577e-05
1.68902562273e-05
1.68938815987e-05
5.04939794611e-05
0.000143475776478
0.000221595618871
0.000128515783405
8.94167957891e-05
7.60906544771e-05
7.14811629628e-05
6.96792883646e-05
6.87344564726e-05
6.80362869805e-05
6.74001167049e-05
6.68053784774e-05
6.62191767151e-05
6.56499960543e-05
6.50981373891e-05
6.4574993445e-05
6.40533724734e-05
6.35440719544e-05
6.30475660325e-05
6.25739759488e-05
6.20965745961e-05
6.16271859295e-05
6.11667476141e-05
6.07259657155e-05
6.02797709439e-05
5.98398367408e-05
5.94073567248e-05
5.89820159351e-05
5.85777041994e-05
5.81669625519e-05
5.77655517488e-05
5.73743366582e-05
5.69939825064e-05
5.66387170466e-05
5.62831764215e-05
5.59420819157e-05
5.56161408511e-05
5.53065581759e-05
5.50294282593e-05
5.47578439362e-05
5.45070888011e-05
5.4278028816e-05
5.40715786601e-05
5.38889748631e-05
5.37304669692e-05
5.35965144481e-05
5.3502265215e-05
5.34192826653e-05
5.33620990678e-05
5.33245903868e-05
1.68899961488e-05
1.68899961488e-05
1.68899961488e-05
1.68899961488e-05
1.68899961488e-05
1.68899961488e-05
1.68899961488e-05
1.68899961488e-05
1.68899961488e-05
1.68899961488e-05
1.68899961488e-05
1.68899961488e-05
1.68899961488e-05
1.68899961488e-05
1.68899961488e-05
1.68899961529e-05
1.68899963794e-05
1.6890008559e-05
1.68906389997e-05
1.72369077917e-05
7.83022754567e-05
0.000157479733412
0.000197446500613
0.000115113198098
8.63831623896e-05
7.64730757896e-05
7.29512148886e-05
7.14175003144e-05
7.04809570781e-05
6.97249309366e-05
6.90318281947e-05
6.83549460938e-05
6.77010723957e-05
6.70831874771e-05
6.64697414925e-05
6.58760860678e-05
6.52977852259e-05
6.4748328748e-05
6.41993343885e-05
6.36628207182e-05
6.31527100158e-05
6.26393022966e-05
6.21365444087e-05
6.16426893575e-05
6.11720943136e-05
6.06964241384e-05
6.02286944181e-05
5.97705103812e-05
5.93358806042e-05
5.88957828817e-05
5.84670634069e-05
5.80494760795e-05
5.76578107295e-05
5.72658155598e-05
5.68883530966e-05
5.65268162923e-05
5.61816730058e-05
5.58559301388e-05
5.5564797379e-05
5.5278775336e-05
5.50151173666e-05
5.4775000546e-05
5.4559016371e-05
5.43678398951e-05
5.42019048381e-05
5.40766640611e-05
5.39630611573e-05
5.38761956565e-05
5.38159845525e-05
5.37770717792e-05
1.68899961488e-05
1.68899961488e-05
1.68899961488e-05
1.68899961488e-05
1.68899961488e-05
1.68899961488e-05
1.68899961488e-05
1.68899961488e-05
1.68899961488e-05
1.68899961488e-05
1.68899961488e-05
1.68899961488e-05
1.68899961488e-05
1.68899961488e-05
1.68899961491e-05
1.68899961659e-05
1.68899970909e-05
1.68900479474e-05
1.68912371024e-05
2.35401090964e-05
9.499618512e-05
0.000173905831836
0.000166451707177
0.000105517946634
8.46409038013e-05
7.74088794288e-05
7.46484448428e-05
7.327366056e-05
7.23287866799e-05
7.1495395232e-05
7.07101621115e-05
6.9958111041e-05
6.92469099422e-05
6.85472360823e-05
6.78857036873e-05
6.72305421685e-05
6.6595075105e-05
6.59913090296e-05
6.53896160715e-05
6.48034749817e-05
6.42320166792e-05
6.3685925947e-05
6.31389177272e-05
6.26035423882e-05
6.20939342267e-05
6.15797078318e-05
6.10776491711e-05
6.05863170613e-05
6.01195922809e-05
5.96504560309e-05
5.91936141425e-05
5.87488901668e-05
5.83341123655e-05
5.79185104533e-05
5.75197721365e-05
5.7138482336e-05
5.67756171357e-05
5.64467538587e-05
5.61245475978e-05
5.58249727455e-05
5.55490641515e-05
5.52976823561e-05
5.5071180592e-05
5.48863796387e-05
5.47129013934e-05
5.45667533902e-05
5.44481443298e-05
5.43573800465e-05
5.42942249336e-05
5.42534709158e-05
1.68899961488e-05
1.68899961488e-05
1.68899961488e-05
1.68899961488e-05
1.68899961488e-05
1.68899961488e-05
1.68899961488e-05
1.68899961488e-05
1.68899961488e-05
1.68899961488e-05
1.68899961488e-05
1.68899961488e-05
1.68899961488e-05
1.68899961488e-05
1.68899961499e-05
1.68899962146e-05
1.68899997045e-05
1.68901899988e-05
1.68931468918e-05
4.26608848241e-05
0.000137041567878
0.00020871489886
0.000142187728949
9.88238124447e-05
8.40120091698e-05
7.87322092062e-05
7.64940008047e-05
7.52173978918e-05
7.42223812028e-05
7.33093272422e-05
7.2455280824e-05
7.16239727769e-05
7.08236547519e-05
7.00663316118e-05
6.93235790773e-05
6.86193544936e-05
6.79252560157e-05
6.72512117943e-05
6.6610924576e-05
6.59725119811e-05
6.53523547559e-05
6.47614130413e-05
6.41689390375e-05
6.35919301057e-05
6.30417371782e-05
6.24899116349e-05
6.19509032685e-05
6.14240023812e-05
6.09261594697e-05
6.04272301603e-05
5.99423383281e-05
5.94712935229e-05
5.9032364409e-05
5.85943775392e-05
5.81732717545e-05
5.77723913568e-05
5.74068151207e-05
5.70469168428e-05
5.67098862094e-05
5.63967298343e-05
5.61083864819e-05
5.58455948445e-05
5.56243266637e-05
5.54150865606e-05
5.52340519503e-05
5.50814775902e-05
5.4957643345e-05
5.4862498151e-05
5.47961085068e-05
5.47535667835e-05
1.68899961488e-05
1.68899961488e-05
1.68899961488e-05
1.68899961488e-05
1.68899961488e-05
1.68899961488e-05
1.68899961488e-05
1.68899961488e-05
1.68899961488e-05
1.68899961488e-05
1.68899961488e-05
1.68899961488e-05
1.68899961488e-05
1.68899961488e-05
1.6889996153e-05
1.68899963829e-05
1.68900084649e-05
1.68906315266e-05
1.69877764004e-05
7.65357531407e-05
0.000155509889887
0.000208055425987
0.00012459973525
9.46839736062e-05
8.42473045552e-05
8.03364325895e-05
7.84622358738e-05
7.72150985069e-05
7.61521422178e-05
7.51707691662e-05
7.42199418564e-05
7.33229803576e-05
7.24483051988e-05
7.1620719949e-05
7.08090436403e-05
7.00260908766e-05
6.92830992148e-05
6.85495990121e-05
6.78541845924e-05
6.71651453515e-05
6.64943496675e-05
6.58564954785e-05
6.52210292739e-05
6.46000016445e-05
6.40113848531e-05
6.34214043627e-05
6.28455233873e-05
6.23015083298e-05
6.17549202756e-05
6.12246335978e-05
6.07107701023e-05
6.02295104576e-05
5.97497141341e-05
5.92885971689e-05
5.88475869093e-05
5.84427155772e-05
5.80437296162e-05
5.76678213828e-05
5.73161085183e-05
5.69894100908e-05
5.6705143377e-05
5.64311803937e-05
5.61852541886e-05
5.59680443944e-05
5.57797810259e-05
5.56211536935e-05
5.54920200422e-05
5.53929766215e-05
5.53233314067e-05
5.52946088419e-05
1.68899961488e-05
1.68899961488e-05
1.68899961488e-05
1.68899961488e-05
1.68899961488e-05
1.68899961488e-05
1.68899961488e-05
1.68899961488e-05
1.68899961488e-05
1.68899961488e-05
1.68899961488e-05
1.68899961488e-05
1.68899961488e-05
1.68899961491e-05
1.68899961705e-05
1.68899973217e-05
1.68900594352e-05
1.68914121568e-05
2.48426400775e-05
9.6958874913e-05
0.00017440040158
0.00017179967349
0.000113011392684
9.2544402102e-05
8.52767142796e-05
8.22500228549e-05
8.05585423997e-05
7.92830961404e-05
7.81329095229e-05
7.70477785805e-05
7.60245854506e-05
7.5047489015e-05
7.4094936703e-05
7.31959855467e-05
7.23147572979e-05
7.14667856368e-05
7.06621747825e-05
6.98708296283e-05
6.91182370373e-05
6.83752023816e-05
6.7653040493e-05
6.69685005894e-05
6.62874216429e-05
6.56405306277e-05
6.49953161154e-05
6.43678152039e-05
6.37570317739e-05
6.31782584432e-05
6.2601065754e-05
6.20413086714e-05
6.15155977803e-05
6.09903547434e-05
6.04864317574e-05
6.00024521098e-05
5.95566947466e-05
5.91163461187e-05
5.86999914842e-05
5.83074410628e-05
5.79585196462e-05
5.76183322284e-05
5.73058256709e-05
5.70217058833e-05
5.67666098655e-05
5.65410972939e-05
5.63631200987e-05
5.61974011231e-05
5.60628813894e-05
5.59594047362e-05
5.58864429487e-05
5.58399267861e-05
1.68899961488e-05
1.68899961488e-05
1.68899961488e-05
1.68899961488e-05
1.68899961488e-05
1.68899961488e-05
1.68899961488e-05
1.68899961488e-05
1.68899961488e-05
1.68899961488e-05
1.68899961488e-05
1.68899961488e-05
1.68899961488e-05
1.68899961507e-05
1.68899962548e-05
1.68900017815e-05
1.68902949409e-05
1.68943665997e-05
5.18359732208e-05
0.000142995673616
0.000218215789326
0.000144835806943
0.000105521893074
9.19001825624e-05
8.67600628299e-05
8.43143695139e-05
8.27176900445e-05
8.13727524135e-05
8.01409267305e-05
7.89569397865e-05
7.78455068875e-05
7.67692498098e-05
7.57544971802e-05
7.47657643125e-05
7.38313871829e-05
7.29183413525e-05
7.20515797617e-05
7.12012960125e-05
7.03947543089e-05
6.95978597379e-05
6.88429266876e-05
6.80941697341e-05
6.73666551427e-05
6.66770055046e-05
6.598991946e-05
6.53244405223e-05
6.46950426287e-05
6.40676028328e-05
6.34578566553e-05
6.28866074311e-05
6.2316713416e-05
6.17667447049e-05
6.12559493876e-05
6.0749792985e-05
6.02667300042e-05
5.98077238467e-05
5.93918308084e-05
5.89832208602e-05
5.86019441052e-05
5.82487078299e-05
5.79246375125e-05
5.76301088683e-05
5.738358856e-05
5.71498890913e-05
5.69475990637e-05
5.67765255149e-05
5.66374171552e-05
5.65298627737e-05
5.64537731741e-05
5.64054627394e-05
1.68899961488e-05
1.68899961488e-05
1.68899961488e-05
1.68899961488e-05
1.68899961488e-05
1.68899961488e-05
1.68899961488e-05
1.68899961488e-05
1.68899961488e-05
1.68899961488e-05
1.68899961488e-05
1.68899961488e-05
1.68899961489e-05
1.6889996159e-05
1.68899967094e-05
1.68900262388e-05