/*--------------------------------*- C++ -*----------------------------------*\
| =========                 |                                                 |
| \\      /  F ield         | foam-extend: Open Source CFD                    |
|  \\    /   O peration     | Version:     4.1                                |
|   \\  /    A nd           | Web:         http://www.foam-extend.org         |
|    \\/     M anipulation  |                                                 |
\*---------------------------------------------------------------------------*/
FoamFile
{
    version     2.0;
    format      ascii;
    class       volScalarField;
    location    "0.0006";
    object      N;
}
// * * * * * * * * * * * * * * * * * * * * * * * * * * * * * * * * * * * * * //

dimensions      [0 0 0 0 0 0 0];

internalField   nonuniform List<scalar> 
8400
(
7.71492891218e-105
7.71492891223e-105
7.71492891227e-105
7.71492891231e-105
7.71492891235e-105
7.71492891239e-105
7.71492891243e-105
7.71492891247e-105
7.71492891251e-105
7.71492891255e-105
7.71492891259e-105
7.71492891262e-105
7.71492891266e-105
7.71492891269e-105
7.71492891273e-105
7.71492891276e-105
7.7149289128e-105
7.71492891284e-105
7.71492891339e-105
7.71492894381e-105
7.71493071923e-105
7.71503050716e-105
7.72074493994e-105
7.83968005964e-105
5.53005272054e-38
0.000147448086251
0.642751930328
0.555830009584
0.363703295778
0.269657954483
0.230350656419
0.215306649599
0.210120877974
0.208338887011
0.207567401161
0.207041186362
0.206587176546
0.20616100639
0.205746662607
0.205336468278
0.204925604605
0.20450575617
0.20413075674
0.203682823997
0.203218516366
0.202732778996
0.202222404261
0.201684238829
0.201117476208
0.200522843412
0.199899790134
0.19924889129
0.198572017005
0.197870143065
0.197143792568
0.196460797475
0.195709611569
0.194956026071
0.194205961643
0.193470828177
0.192762815252
0.192087855202
0.191456451543
0.190877833125
0.190361047902
0.189915238418
0.189548071269
0.189265416219
0.189071704967
0.188770404364
7.71492890033e-105
7.71492890035e-105
7.71492890036e-105
7.71492890038e-105
7.7149289004e-105
7.71492890041e-105
7.71492890043e-105
7.71492890044e-105
7.71492890046e-105
7.71492890048e-105
7.71492890049e-105
7.71492890051e-105
7.71492890052e-105
7.71492890054e-105
7.71492890055e-105
7.71492890056e-105
7.71492890058e-105
7.71492890064e-105
7.71492890337e-105
7.71492906162e-105
7.71493827576e-105
7.71545085824e-105
7.7443769621e-105
8.12795593072e-105
8.8158535986e-13
0.150755703791
0.708383160201
0.461567590625
0.312414554558
0.245103538485
0.21854297609
0.209064688924
0.206079084722
0.205088771889
0.204608206149
0.20421663169
0.203834218588
0.203443135597
0.203038852772
0.202620840378
0.202185721206
0.201731806235
0.201256053547
0.200757863243
0.200236628013
0.199692928199
0.199122903149
0.198524198545
0.197896714598
0.197242745262
0.19656454682
0.19586175509
0.19513703085
0.19439242134
0.193631191676
0.192861320032
0.192089848581
0.191321375545
0.190564287845
0.189831064951
0.189128774487
0.188464862924
0.187847806034
0.187287552843
0.186793680915
0.186370612054
0.186024028659
0.185758675404
0.18557727208
0.18533240703
7.714928895e-105
7.71492889501e-105
7.71492889502e-105
7.71492889503e-105
7.71492889504e-105
7.71492889505e-105
7.71492889506e-105
7.71492889507e-105
7.71492889508e-105
7.71492889509e-105
7.7149288951e-105
7.71492889511e-105
7.71492889512e-105
7.71492889513e-105
7.71492889514e-105
7.71492889515e-105
7.71492889516e-105
7.71492889541e-105
7.71492890959e-105
7.71492974609e-105
7.71497763291e-105
7.7177250623e-105
7.79736375226e-105
2.28929458777e-38
8.69757591927e-06
0.481580645517
0.596430676523
0.384121577553
0.275014260521
0.229133349484
0.211827907412
0.206059752605
0.204405862241
0.203775928557
0.203421479544
0.203099088469
0.202770977094
0.202426748146
0.202063333436
0.201679816276
0.201217654322
0.20078703185
0.200329907386
0.199848240818
0.199338463378
0.198799168143
0.198229126568
0.197628990168
0.197002449638
0.196347550449
0.195664748913
0.194957593895
0.194232384643
0.193491264869
0.192736956755
0.19203053575
0.191268382289
0.190515004698
0.189781582015
0.189072347793
0.188395248056
0.187757968687
0.18717091889
0.186640830991
0.186173241275
0.185774328757
0.185448276184
0.185198873482
0.185028612445
0.18481690204
7.71492889194e-105
7.71492889195e-105
7.71492889196e-105
7.71492889196e-105
7.71492889197e-105
7.71492889198e-105
7.71492889198e-105
7.71492889199e-105
7.714928892e-105
7.714928892e-105
7.71492889201e-105
7.71492889202e-105
7.71492889202e-105
7.71492889203e-105
7.71492889204e-105
7.71492889204e-105
7.71492889207e-105
7.71492889324e-105
7.71492896207e-105
7.71493300787e-105
7.71516063128e-105
7.72822215865e-105
7.94519908016e-105
3.52593737002e-23
0.0357653666279
0.750368042617
0.506253362552
0.333460682454
0.253164307448
0.2209359241
0.209241271738
0.205535682083
0.204436929904
0.203971898269
0.203618247246
0.20327611906
0.202925065904
0.202559838809
0.202176923192
0.201774179503
0.201348654662
0.200843806722
0.200371193156
0.199873364903
0.19934603845
0.198788867112
0.198200623391
0.197582464671
0.196938106398
0.196265699515
0.195565314788
0.194902973104
0.194164119136
0.193411295694
0.19265149427
0.191889540634
0.19113020096
0.190381644399
0.189655646936
0.188955924129
0.188290628586
0.187667463595
0.187095980601
0.186581555703
0.186128713733
0.185742893092
0.185428408724
0.185188417571
0.185024932745
0.18483196493
7.71492888998e-105
7.71492888998e-105
7.71492888999e-105
7.71492888999e-105
7.71492889e-105
7.71492889e-105
7.71492889001e-105
7.71492889002e-105
7.71492889002e-105
7.71492889003e-105
7.71492889003e-105
7.71492889004e-105
7.71492889004e-105
7.71492889005e-105
7.71492889005e-105
7.71492889006e-105
7.71492889013e-105
7.71492889386e-105
7.71492911142e-105
7.71494177381e-105
7.71564648899e-105
7.75518555459e-105
8.24571214852e-105
2.32790838925e-09
0.217636929394
0.683000563243
0.441222186577
0.302451738407
0.241231709433
0.217434485027
0.209097429628
0.206571915044
0.205682957871
0.205207550047
0.204797421912
0.204393329555
0.203980960206
0.203556199326
0.203115810405
0.202660006385
0.202183808822
0.201685541157
0.201161172073
0.200610934365
0.200034933041
0.199433078177
0.198802747736
0.19814254075
0.197454871968
0.196745726428
0.196013855894
0.195262828547
0.194495710832
0.193715561123
0.192931307321
0.192151517651
0.191378857232
0.190618716335
0.189881525749
0.189175995613
0.188508134277
0.187883358384
0.187368203293
0.186851628932
0.186398631134
0.186013869164
0.185702504385
0.185466161996
0.185305123323
0.185122267788
7.71492888863e-105
7.71492888863e-105
7.71492888864e-105
7.71492888864e-105
7.71492888865e-105
7.71492888865e-105
7.71492888866e-105
7.71492888866e-105
7.71492888867e-105
7.71492888867e-105
7.71492888867e-105
7.71492888868e-105
7.71492888868e-105
7.71492888869e-105
7.71492888869e-105
7.7149288887e-105
7.71492888889e-105
7.71492889993e-105
7.71492955568e-105
7.7149674944e-105
7.71714761076e-105
7.78941795134e-105
1.61793548809e-38
4.02759491694e-06
0.433624562996
0.612718708089
0.396072274009
0.282917468081
0.2350067438
0.216787496304
0.210566740059
0.208657164908
0.207818002891
0.20726734545
0.206764002158
0.206266374104
0.205764199878
0.205253378591
0.204730611701
0.204192541179
0.203636457605
0.203060486645
0.202465342804
0.201846532639
0.20120175187
0.200530958124
0.19983608583
0.199117100007
0.198372346502
0.197604409823
0.196819955904
0.196021239991
0.195210199026
0.194391170822
0.19356847353
0.192750935232
0.192002820141
0.191218046347
0.190459704291
0.189733151315
0.189046256313
0.188408216998
0.18782640257
0.187303056812
0.186843775808
0.186453652263
0.186137199592
0.185897182783
0.185734790908
0.185558755498
7.71492888766e-105
7.71492888766e-105
7.71492888767e-105
7.71492888767e-105
7.71492888767e-105
7.71492888768e-105
7.71492888768e-105
7.71492888769e-105
7.71492888769e-105
7.71492888769e-105
7.7149288877e-105
7.7149288877e-105
7.7149288877e-105
7.71492888771e-105
7.71492888771e-105
7.71492888772e-105
7.71492888825e-105
7.71492891911e-105
7.71493073317e-105
7.7150334436e-105
7.72094204883e-105
7.84373271965e-105
5.76428038269e-38
0.000187702847943
0.653298116846
0.552232012781
0.362782262231
0.270104498419
0.232148110101
0.217889247754
0.213137324271
0.211517256549
0.210644633661
0.209989124497
0.20937093886
0.208759046818
0.208144691111
0.207524981155
0.206898718769
0.206262795532
0.205613081446
0.20494686008
0.204261234018
0.203553415511
0.202824183129
0.202075213833
0.20130278597
0.200506086396
0.199689882004
0.198855819194
0.19806167643
0.197200209753
0.196329039982
0.195454612803
0.194585018917
0.193723322137
0.192876624494
0.192055526985
0.191263626396
0.190509408522
0.189799396524
0.189139024102
0.188535700787
0.187994887629
0.187580196349
0.187176707726
0.186850651644
0.1866035604
0.186436657907
0.186260814235
7.71492888693e-105
7.71492888694e-105
7.71492888694e-105
7.71492888694e-105
7.71492888695e-105
7.71492888695e-105
7.71492888695e-105
7.71492888696e-105
7.71492888696e-105
7.71492888696e-105
7.71492888697e-105
7.71492888697e-105
7.71492888697e-105
7.71492888697e-105
7.71492888698e-105
7.71492888701e-105
7.71492888843e-105
7.7149289721e-105
7.71493388266e-105
7.7152105952e-105
7.73110857538e-105
7.98223076911e-105
5.83072897477e-23
0.0560579578216
0.746067285787
0.502644907725
0.338265561141
0.262144851343
0.231324730143
0.22005280106
0.216296819496
0.214913831447
0.214051149939
0.213234628682
0.212497403319
0.21176539334
0.211031065882
0.210293077965
0.209552510331
0.208805267451
0.208045131514
0.207270698975
0.20648433044
0.205679178238
0.204910921106
0.204066921179
0.203202535315
0.202321669728
0.201425174224
0.200511345457
0.199586377957
0.19865599453
0.197721535515
0.196786970088
0.195856748647
0.194941337698
0.194045640585
0.193233018049
0.192399245366
0.191607950873
0.190863551558
0.190172590169
0.189542980733
0.188981684207
0.18849068873
0.188074336998
0.18773672617
0.187480604649
0.187307523917
0.187131080643
7.71492888637e-105
7.71492888638e-105
7.71492888638e-105
7.71492888638e-105
7.71492888639e-105
7.71492888639e-105
7.71492888639e-105
7.71492888639e-105
7.7149288864e-105
7.7149288864e-105
7.7149288864e-105
7.71492888641e-105
7.71492888641e-105
7.71492888641e-105
7.71492888641e-105
7.71492888647e-105
7.71492888978e-105
7.71492908202e-105
7.71494025645e-105
7.71556173223e-105
7.75041519599e-105
8.1958351166e-105
1.36177751431e-10
0.181515211729
0.700016927735
0.461656072065
0.320415305603
0.257406663908
0.232453431747
0.223278545709
0.220185553181
0.218845773789
0.217879393598
0.216992591464
0.216128165055
0.215269023247
0.214411836922
0.213550304424
0.212684958678
0.211816413666
0.210937630318
0.210046435212
0.209147944453
0.208235541135
0.207308456415
0.206363689561
0.205402523438
0.204429935271
0.203441322204
0.20244084279
0.201436186946
0.20042358219
0.199471067299
0.198467142796
0.197472857444
0.19649519402
0.195544382277
0.194623013492
0.19374032614
0.192906993856
0.192125056594
0.19140195681
0.190742487461
0.190211515767
0.189695913858
0.189261129246
0.1889092494
0.188642376895
0.188461985526
0.188284517915
7.71492888593e-105
7.71492888593e-105
7.71492888594e-105
7.71492888594e-105
7.71492888594e-105
7.71492888595e-105
7.71492888595e-105
7.71492888595e-105
7.71492888595e-105
7.71492888596e-105
7.71492888596e-105
7.71492888596e-105
7.71492888596e-105
7.71492888596e-105
7.71492888597e-105
7.71492888608e-105
7.71492889269e-105
7.71492928379e-105
7.71495233298e-105
7.71627350938e-105
7.77672511249e-105
5.55517705691e-39
6.06788377341e-07
0.33770920624
0.647531750467
0.427310700366
0.307455735977
0.25503150785
0.234717826958
0.227377559563
0.224665607408
0.223288884852
0.222189392213
0.221153676696
0.220136648073
0.2191336345
0.218135709935
0.217138195328
0.216144319159
0.215147545088
0.21414546066
0.213132649349
0.212112537333
0.211082716303
0.210037401945
0.208982316353
0.207916080376
0.206898823432
0.20581624015
0.204724109082
0.203626712992
0.202533432381
0.201442084858
0.200362482364
0.199300281406
0.198259120357
0.1973012477
0.196324169931
0.195392521211
0.194509769499
0.193682986819
0.192922238238
0.192230743877
0.191613981133
0.191076340752
0.190622006865
0.190253358911
0.18997359179
0.189783786482
0.189602526648
7.71492888557e-105
7.71492888558e-105
7.71492888558e-105
7.71492888558e-105
7.71492888558e-105
7.71492888559e-105
7.71492888559e-105
7.71492888559e-105
7.71492888559e-105
7.7149288856e-105
7.7149288856e-105
7.7149288856e-105
7.7149288856e-105
7.7149288856e-105
7.71492888561e-105
7.71492888594e-105
7.71492890486e-105
7.71493001322e-105
7.71499290885e-105
7.71857791159e-105
7.8113558846e-105
3.12064945753e-38
1.80133768666e-05
0.513841851883
0.597514696348
0.398744807509
0.297707611555
0.25485261524
0.238198018932
0.232096367428
0.229667695558
0.228197772446
0.226932432999
0.22572846614
0.22454699684
0.223386066438
0.22223744996
0.221095571309
0.21995520552
0.218820436257
0.217682470433
0.216539961897
0.215450405213
0.21429736231
0.21313441294
0.211963339447
0.210787266272
0.209604600479
0.208413179834
0.207222605936
0.206033074177
0.204904541907
0.203730778912
0.202573675426
0.201434866459
0.200321949788
0.199245798126
0.198208005104
0.197218499147
0.196347354952
0.195476636519
0.194675158516
0.193944381656
0.193292584625
0.192728239375
0.192252831158
0.191868649199
0.19157744131
0.191379494367
0.19119626501
7.71492888528e-105
7.71492888528e-105
7.71492888528e-105
7.71492888529e-105
7.71492888529e-105
7.71492888529e-105
7.71492888529e-105
7.7149288853e-105
7.7149288853e-105
7.7149288853e-105
7.7149288853e-105
7.7149288853e-105
7.71492888531e-105
7.71492888531e-105
7.71492888532e-105
7.71492888612e-105
7.71492893264e-105
7.71493165874e-105
7.71508570029e-105
7.72395133868e-105
7.88890770743e-105
1.38015623587e-24
0.00347701970599
0.702071901415
0.549726099551
0.374982640353
0.290964005404
0.255964093702
0.24245322489
0.237428919185
0.235115716133
0.23351577665
0.232073762585
0.230687795219
0.229335213031
0.2280037186
0.22668685722
0.225443284259
0.224153001925
0.22286562021
0.221586054547
0.22030552096
0.219024346633
0.217743908822
0.216458968963
0.215164113015
0.213928645184
0.212631013632
0.211335625294
0.210039982076
0.208748146123
0.207468294481
0.206204686967
0.204957160301
0.203801152954
0.202616737861
0.2014723501
0.200371671799
0.199328082779
0.19834484409
0.197428287832
0.196580427394
0.195876466709
0.195191228682
0.194597261768
0.194098397928
0.193696196516
0.19339042221
0.193181658383
0.192994346599
7.71492888503e-105
7.71492888504e-105
7.71492888504e-105
7.71492888504e-105
7.71492888504e-105
7.71492888504e-105
7.71492888505e-105
7.71492888505e-105
7.71492888505e-105
7.71492888505e-105
7.71492888505e-105
7.71492888506e-105
7.71492888506e-105
7.71492888506e-105
7.7149288851e-105
7.71492888724e-105
7.71492901204e-105
7.71493625419e-105
7.71533864573e-105
7.73795677262e-105
8.06247422802e-105
1.59877760865e-16
0.09502899176
0.738224610546
0.505719616177
0.356182029418
0.286699726473
0.258370174418
0.24739058348
0.243179542065
0.24093120735
0.239195385613
0.237577472204
0.236006981496
0.234519934123
0.233005650831
0.231518195778
0.230045891943
0.228594423846
0.22715136485
0.225720239203
0.224296362682
0.222932316855
0.221511047462
0.220092449592
0.218677340786
0.217261157468
0.215846296507
0.214437284257
0.213093194513
0.211701685789
0.21032568895
0.208965416062
0.207634132672
0.20633412313
0.205067996337
0.20391349109
0.202745817435
0.201643175032
0.200605431167
0.199638345245
0.198746549161
0.197940589413
0.197226280286
0.196605501796
0.196144884984
0.195719380076
0.195397928683
0.195179794794
0.194990730432
7.71492888483e-105
7.71492888483e-105
7.71492888483e-105
7.71492888483e-105
7.71492888483e-105
7.71492888483e-105
7.71492888484e-105
7.71492888484e-105
7.71492888484e-105
7.71492888484e-105
7.71492888484e-105
7.71492888485e-105
7.71492888485e-105
7.71492888485e-105
7.71492888494e-105
7.71492889002e-105
7.71492917981e-105
7.71494567661e-105
7.71584590506e-105
7.76475175367e-105
8.35142491488e-105
2.29489374086e-08
0.239206120322
0.687251331266
0.467460341918
0.34128870092
0.284912765096
0.261993919672
0.253096206466
0.249429862323
0.247135670536
0.245223618908
0.243465100558
0.241693564395
0.239963817224
0.238263082828
0.236594588166
0.234947198838
0.23337933646
0.231768037686
0.230173350822
0.228593711898
0.22702693915
0.225464826262
0.22391024128
0.222420412329
0.220877482373
0.21934459496
0.21781723182
0.216304580827
0.214808779394
0.213390898991
0.211938000771
0.210519274705
0.209134037243
0.207792360011
0.206502171745
0.205329833942
0.204160876073
0.203064980963
0.202045367909
0.201106976434
0.200261275838
0.199510587958
0.19886145904
0.198316446276
0.197874329805
0.19760178814
0.197369261914
0.197175938894
7.71492888465e-105
7.71492888465e-105
7.71492888465e-105
7.71492888465e-105
7.71492888465e-105
7.71492888465e-105
7.71492888466e-105
7.71492888466e-105
7.71492888466e-105
7.71492888466e-105
7.71492888466e-105
7.71492888466e-105
7.71492888467e-105
7.71492888467e-105
7.71492888493e-105
7.71492889965e-105
7.71492975419e-105
7.71497802308e-105
7.71768552646e-105
7.8002107104e-105
2.02574552739e-38
5.61904052984e-06
0.427547121309
0.631600090549
0.434555327301
0.330572030506
0.285206632127
0.266810243651
0.259533845364
0.256121855288
0.253755153515
0.251637164689
0.249603716355
0.247625738308
0.245688764693
0.243853257143
0.241991765472
0.240163103658
0.238364163498
0.236582694675
0.234826695553
0.233143732012
0.231415418593
0.229702504206
0.22800474133
0.226316547718
0.224706218539
0.223047091582
0.221399564708
0.219776619953
0.218173765739
0.216591886699
0.215106355607
0.213594986944
0.212128079351
0.210709011274
0.209342006674
0.208042082101
0.206878330263
0.205721590376
0.204648886249
0.203666921939
0.202779657196
0.201992571256
0.201309346646
0.200735126897
0.200271028486
0.19991486225
0.199740117918
0.199473989025
7.71492888449e-105
7.71492888449e-105
7.71492888449e-105
7.7149288845e-105
7.7149288845e-105
7.7149288845e-105
7.7149288845e-105
7.7149288845e-105
7.7149288845e-105
7.71492888451e-105
7.71492888451e-105
7.71492888451e-105
7.71492888451e-105
7.71492888452e-105
7.71492888528e-105
7.71492892845e-105
7.71493140416e-105
7.71506836594e-105
7.72273922334e-105
7.87149429953e-105
7.04254449349e-38
0.000501772485407
0.644723566921
0.577643457553
0.407350990783
0.322993010006
0.287112978137
0.272561605033
0.26644591371
0.263207575432
0.260653473951
0.258292368769
0.256024252642
0.253878333949
0.251729043752
0.249630811587
0.247573823001
0.245552484135
0.243632686097
0.241675177155
0.2397460162
0.237842229788
0.23602273015
0.234155233324
0.232311987799
0.23048134159
0.228671874898
0.226944640413
0.225174436465
0.223430803027
0.221719837485
0.220034773189
0.218456696273
0.216849191798
0.215295240372
0.213797438716
0.212362037958
0.210990080332
0.20976303728
0.208551583772
0.207429557287
0.206402515458
0.20547415359
0.204650275619
0.203938719057
0.203338729099
0.202853500837
0.20248363933
0.202302368457
0.202103516858
7.71492888435e-105
7.71492888436e-105
7.71492888436e-105
7.71492888436e-105
7.71492888436e-105
7.71492888436e-105
7.71492888436e-105
7.71492888437e-105
7.71492888437e-105
7.71492888437e-105
7.71492888437e-105
7.71492888437e-105
7.71492888437e-105
7.71492888442e-105
7.71492888685e-105
7.7149290266e-105
7.71493701912e-105
7.71537531025e-105
7.73958555724e-105
8.08328784462e-105
1.74920033444e-16
0.092905002323
0.743473691742
0.527366250415
0.385184901933
0.31861780291
0.290443506632
0.278889490049
0.27374625427
0.270550329256
0.267808422083
0.265273185958
0.262767170443
0.26032538249
0.257948617508
0.255689528106
0.253426428886
0.251210298352
0.249039467198
0.246964633229
0.244863331009
0.242789799695
0.240748609965
0.238788737331
0.236796716256
0.234825487659
0.232881268522
0.230960800283
0.229132352331
0.227265601629
0.225436356064
0.223648025224
0.22190273998
0.220271422545
0.218630667376
0.217053134197
0.215541367879
0.21410191488
0.212814237184
0.21154677527
0.210374391699
0.209301987503
0.208335005594
0.207479023088
0.206736803825
0.206109223575
0.205673168665
0.205287483052
0.205025146833
0.204825154209
7.71492888423e-105
7.71492888424e-105
7.71492888424e-105
7.71492888424e-105
7.71492888424e-105
7.71492888424e-105
7.71492888424e-105
7.71492888424e-105
7.71492888425e-105
7.71492888425e-105
7.71492888425e-105
7.71492888425e-105
7.71492888425e-105
7.71492888438e-105
7.71492889131e-105
7.71492927804e-105
7.71495074898e-105
7.71610542953e-105
7.77587418215e-105
2.10870531715e-39
1.73190207858e-07
0.270078954119
0.686233615302
0.483935704011
0.369032296312
0.317076891435
0.295251952787
0.286044544864
0.281419563738
0.278135415306
0.275225231021
0.272388802908
0.269638551129
0.267031032612
0.26442755881
0.261898024537
0.259421331567
0.25706204706
0.254690581695
0.252364106596
0.250145298702
0.247902551433
0.245696461919
0.243520387562
0.241441504071
0.239329669304
0.237245491014
0.235194860775
0.233245352508
0.231261615535
0.229323031049
0.227426962876
0.225645939717
0.223854873669
0.222125333163
0.220463088419
0.218872760952
0.217366654597
0.216022087368
0.21469495094
0.213470738663
0.212354791079
0.211349066412
0.210458844813
0.209685715412
0.209106898374
0.208579620392
0.208180093724
0.207907073654
0.207705490442
7.71492888413e-105
7.71492888413e-105
7.71492888413e-105
7.71492888413e-105
7.71492888413e-105
7.71492888413e-105
7.71492888414e-105
7.71492888414e-105
7.71492888414e-105
7.71492888414e-105
7.71492888414e-105
7.71492888414e-105
7.71492888415e-105
7.71492888465e-105
7.71492891287e-105
7.71493051141e-105
7.71501820053e-105
7.71983963976e-105
7.83257713312e-105
3.98139209869e-38
3.01586512078e-05
0.510324237103
0.623017037264
0.448295301395
0.357825431782
0.318171674087
0.301294576589
0.293775858425
0.28948833801
0.2860080306
0.28277858428
0.27968047415
0.276740390109
0.273829559558
0.271065483228
0.268311336833
0.265626668961
0.263066231662
0.260500458747
0.2579889692
0.25552862197
0.253170053801
0.250793764406
0.248457753272
0.246227733048
0.243965459054
0.241748370549
0.239568616875
0.237492333879
0.235394854084
0.233344928734
0.231340314156
0.229468355498
0.227583030824
0.22576893167
0.22402865384
0.222365671486
0.220858646483
0.21937599593
0.217995808981
0.216721683979
0.215559540023
0.214510701866
0.213658858723
0.212856093129
0.212181899834
0.211636556999
0.211221800089
0.21093749108
0.210732252065
7.71492888403e-105
7.71492888403e-105
7.71492888403e-105
7.71492888404e-105
7.71492888404e-105
7.71492888404e-105
7.71492888404e-105
7.71492888404e-105
7.71492888404e-105
7.71492888404e-105
7.71492888405e-105
7.71492888405e-105
7.71492888408e-105
7.71492888603e-105
7.71492899536e-105
7.71493512227e-105
7.71526598099e-105
7.73330677834e-105
8.01363417111e-105
5.80099112287e-23
0.046238910557
0.744855933841
0.563390046106
0.420146541771
0.351219494106
0.321272020211
0.308214619193
0.301914130197
0.297695099373
0.293997778975
0.290555275204
0.28718730738
0.28392479537
0.280823306458
0.277760743226
0.274844366399
0.271951336131
0.269125802722
0.266431792367
0.263728351618
0.26108802109
0.258563373949
0.256017078466
0.253524029333
0.251139478322
0.248733452542
0.246373449853
0.244054609582
0.241859299525
0.239646249667
0.237487428617
0.235380307159
0.233414724266
0.231441877389
0.229539601653
0.227721372985
0.226061846117
0.224420041056
0.222879590416
0.221445777235
0.220123126335
0.218915530631
0.217901358984
0.216938297495
0.216106043499
0.215406503324
0.214841287626
0.214410590133
0.214114369494
0.21390533525
7.71492888395e-105
7.71492888395e-105
7.71492888395e-105
7.71492888395e-105
7.71492888395e-105
7.71492888395e-105
7.71492888395e-105
7.71492888395e-105
7.71492888396e-105
7.71492888396e-105
7.71492888396e-105
7.71492888396e-105
7.71492888409e-105
7.71492889132e-105
7.71492928946e-105
7.71495108246e-105
7.7160965152e-105
7.77516569896e-105
5.59471525937e-40
6.94203773113e-08
0.240162934511
0.705104486474
0.511734973046
0.39997242499
0.348384062107
0.325963697625
0.315848126042
0.310277462913
0.305989773929
0.302114309276
0.298348402721
0.29477673349
0.291267450488
0.287928166132
0.284629076723
0.281426231281
0.278372012657
0.27533458072
0.272443228219
0.269560510279
0.266736107784
0.264040123558
0.261337503921
0.258681880385
0.256155149776
0.253607105573
0.251107001133
0.24873802008
0.246343319811
0.244010186148
0.241738030262
0.239606555788
0.23746938302
0.235408610592
0.233429310033
0.231609972676
0.229808066871
0.22810562632
0.226509355956
0.225022402572
0.223730524682
0.222479887369
0.221356883386
0.220364742916
0.219506143651
0.218783572891
0.218198276735
0.217752783334
0.217443610021
0.217305518138
7.71492888387e-105
7.71492888387e-105
7.71492888387e-105
7.71492888387e-105
7.71492888387e-105
7.71492888387e-105
7.71492888388e-105
7.71492888388e-105
7.71492888388e-105
7.71492888388e-105
7.71492888388e-105
7.71492888389e-105
7.71492888455e-105
7.71492892102e-105
7.71493094825e-105
7.71504008519e-105
7.72092874137e-105
7.84917311734e-105
4.71786964385e-38
4.70444716846e-05
0.514945805158
0.633190453205
0.471264956438
0.386864928408
0.34916790677
0.332325389034
0.32413609189
0.31888986845
0.314416924331
0.310218622104
0.306240412119
0.30241303094
0.298651284987
0.295078912679
0.291548032134
0.288126749947
0.284862089468
0.281626930692
0.278533748013
0.275459039608
0.272451468046
0.269588910399
0.266721786772
0.263987395095
0.261240991653
0.258555504597
0.255928041217
0.253430417133
0.250922884022
0.248479343961
0.246177965126
0.243865029496
0.241636865731
0.239488113319
0.237506606623
0.23553701745
0.233670330671
0.231903672423
0.230333941244
0.228796672706
0.227382626576
0.226095090236
0.224938512947
0.2239148308
0.22311250326
0.222362574916
0.221757709782
0.221296376131
0.220976685733
0.220760299091
7.7149288838e-105
7.7149288838e-105
7.7149288838e-105
7.7149288838e-105
7.7149288838e-105
7.7149288838e-105
7.7149288838e-105
7.71492888381e-105
7.71492888381e-105
7.71492888381e-105
7.71492888381e-105
7.71492888387e-105
7.7149288871e-105
7.71492906597e-105
7.71493893381e-105
7.71546289026e-105
7.74325579156e-105
8.12926823162e-105
2.04019603839e-16
0.087959755598
0.75069770311
0.568018091843
0.440891182326
0.379694096195
0.352350620173
0.339668646943
0.332748160144
0.327536892234
0.322877086468
0.318381583236
0.314133245119
0.30998163816
0.306039872185
0.302163640482
0.298476370828
0.294842558726
0.291371386295
0.287938687422
0.284664948251
0.281404264319
0.278299569294
0.275198205821
0.272165342253
0.269277658021
0.266379951806
0.263558502887
0.260879519003
0.258191491632
0.255565266357
0.253096148322
0.250617691732
0.248213675536
0.245976200643
0.24374644791
0.241611177172
0.239572630177
0.237723682575
0.235897294187
0.234190409121
0.232604839403
0.23114791061
0.229821153186
0.228715410063
0.227662152105
0.226752070094
0.225984720633
0.225363235211
0.224887563284
0.224557721511
0.22434007636
7.71492888373e-105
7.71492888373e-105
7.71492888374e-105
7.71492888374e-105
7.71492888374e-105
7.71492888374e-105
7.71492888374e-105
7.71492888374e-105
7.71492888374e-105
7.71492888374e-105
7.71492888375e-105
7.71492888406e-105
7.71492890119e-105
7.7149298583e-105
7.71498203295e-105
7.71778156144e-105
7.80632999691e-105
1.70334608186e-38
2.71596642284e-06
0.343930740036
0.685410768718
0.515552290464
0.421055046417
0.377518159567
0.357589656382
0.347792668303
0.341453158152
0.336195748032
0.331220030651
0.326516300295
0.322000812624
0.317585064526
0.313392063918
0.309282023768
0.305376099933
0.301601681157
0.297870204253
0.294242016474
0.290789260513
0.287355334395
0.284084546857
0.280824405017
0.277715826735
0.274611078307
0.27158030687
0.268699453689
0.265813130507
0.262996099985
0.26034467714
0.257690975653
0.255119149821
0.252712542145
0.250312548159
0.248009810672
0.245804467066
0.243787665285
0.241792710426
0.239915544227
0.238159441365
0.236622472877
0.235123013279
0.233760471808
0.232537066684
0.231456090624
0.230521375305
0.22973251707
0.229182901754
0.228689455141
0.228346099593
0.228122275777
7.71492888367e-105
7.71492888367e-105
7.71492888368e-105
7.71492888368e-105
7.71492888368e-105
7.71492888368e-105
7.71492888368e-105
7.71492888368e-105
7.71492888368e-105
7.71492888368e-105
7.71492888372e-105
7.71492888565e-105
7.71492899188e-105
7.71493483481e-105
7.71524445307e-105
7.73160054219e-105
7.99431169e-105
3.51826431286e-23
0.017905686869
0.671409573464
0.610280378998
0.476687642588
0.409714243606
0.379017252457
0.364461285751
0.356330028831
0.350211590989
0.344751063521
0.339509141511
0.334543921969
0.329768941305
0.325116976254
0.320693038019
0.316420979641
0.312224608793
0.308241224049
0.30431181359
0.300580726678
0.296876795087
0.293353778162
0.289850620252
0.286519120321
0.283193052151
0.279945444545
0.276867987209
0.273785903093
0.270782751346
0.267941399804
0.265101806178
0.262346401406
0.259765330443
0.257186632795
0.25470874103
0.252420619442
0.250149521895
0.247989358778
0.24594206722
0.244112859077
0.24231039728
0.240642431505
0.239110964637
0.237716828968
0.236562333975
0.235453859647
0.234497173408
0.233690221583
0.23303484939
0.23252985404
0.232173816699
0.231945823118
7.71492888362e-105
7.71492888362e-105
7.71492888362e-105
7.71492888362e-105
7.71492888362e-105
7.71492888362e-105
7.71492888363e-105
7.71492888363e-105
7.71492888363e-105
7.71492888363e-105
7.71492888385e-105
7.71492889532e-105
7.71492952267e-105
7.71496386107e-105
7.71680335633e-105
7.79259375389e-105
7.15707170888e-39
4.21296448319e-07
0.263414718548
0.715153436779
0.548008604801
0.451030359302
0.40474922092
0.383217189511
0.372185030109
0.364941974316
0.358831041158
0.353126098387
0.347628372446
0.342408011533
0.33739898089
0.332512034774
0.327864282722
0.323391609319
0.319002403012
0.314821748935
0.310707584847
0.30678531868
0.302991048582
0.299229245508
0.295573840362
0.292097999413
0.288635634094
0.285349537582
0.282064857646
0.278953928853
0.27584292562
0.272820706732
0.269974708552
0.267129856051
0.26437848636
0.261818982584
0.259265697304
0.256820719613
0.254484333869
0.252359165117
0.250261855741
0.248291171189