/*--------------------------------*- C++ -*----------------------------------*\
| =========                 |                                                 |
| \\      /  F ield         | foam-extend: Open Source CFD                    |
|  \\    /   O peration     | Version:     4.1                                |
|   \\  /    A nd           | Web:         http://www.foam-extend.org         |
|    \\/     M anipulation  |                                                 |
\*---------------------------------------------------------------------------*/
FoamFile
{
    version     2.0;
    format      ascii;
    class       volScalarField;
    location    "0.0006";
    object      N2;
}
// * * * * * * * * * * * * * * * * * * * * * * * * * * * * * * * * * * * * * //

dimensions      [0 0 0 0 0 0 0];

internalField   nonuniform List<scalar> 
8400
(
0.767082
0.767082
0.767082
0.767082
0.767082
0.767082
0.767082
0.767082
0.767082
0.767082
0.767082
0.767082
0.767082
0.767082
0.767082
0.767082
0.767082
0.767082
0.767082
0.767082
0.767082
0.767082
0.767082
0.767082
0.767082
0.756009865536
0.123225400694
5.8771681469e-05
9.55848285075e-06
3.76722375104e-06
2.46085032896e-06
2.07511360393e-06
1.9517399138e-06
1.90724946271e-06
1.88595973965e-06
1.87019917718e-06
1.85642525483e-06
1.84346271946e-06
1.83088375183e-06
1.81852464254e-06
1.80632319428e-06
1.79391564533e-06
1.7828158985e-06
1.76978922203e-06
1.75641029192e-06
1.74245363823e-06
1.72792054439e-06
1.71278251267e-06
1.69688203839e-06
1.68042402584e-06
1.66329800863e-06
1.64552145229e-06
1.62725774485e-06
1.60840167769e-06
1.5892054847e-06
1.57117552139e-06
1.55171107412e-06
1.53224107418e-06
1.51317453611e-06
1.49455262771e-06
1.47688833967e-06
1.4600797779e-06
1.44463444539e-06
1.43050475254e-06
1.41801787621e-06
1.40734312936e-06
1.39856940031e-06
1.39183626093e-06
1.38730097307e-06
1.38155757276e-06
0.767082
0.767082
0.767082
0.767082
0.767082
0.767082
0.767082
0.767082
0.767082
0.767082
0.767082
0.767082
0.767082
0.767082
0.767082
0.767082
0.767082
0.767082
0.767082
0.767082
0.767082
0.767082
0.767082
0.767082
0.766501220706
0.614927907728
0.000549601048697
2.35418454893e-05
5.78714295366e-06
2.86393945106e-06
2.12783425912e-06
1.9079342322e-06
1.84152621265e-06
1.81846905157e-06
1.80640630156e-06
1.79613653417e-06
1.78599555333e-06
1.77551973125e-06
1.76463165819e-06
1.75348868102e-06
1.74181861097e-06
1.72957581778e-06
1.71690332123e-06
1.70357790167e-06
1.68961102457e-06
1.6751824264e-06
1.65999839518e-06
1.64418362995e-06
1.62766741692e-06
1.6105198172e-06
1.59287632586e-06
1.57464976589e-06
1.55605392299e-06
1.5370317298e-06
1.51779538974e-06
1.49847882541e-06
1.47930625639e-06
1.4603825457e-06
1.44187371016e-06
1.42413853818e-06
1.40724801633e-06
1.39143948854e-06
1.37684339838e-06
1.36365905593e-06
1.35217667053e-06
1.34234874962e-06
1.33430791331e-06
1.32826706523e-06
1.32416090937e-06
1.31950738927e-06
0.767082
0.767082
0.767082
0.767082
0.767082
0.767082
0.767082
0.767082
0.767082
0.767082
0.767082
0.767082
0.767082
0.767082
0.767082
0.767082
0.767082
0.767082
0.767082
0.767082
0.767082
0.767082
0.767082
0.767082
0.754871592965
0.284583677406
9.11146521553e-05
1.14967877009e-05
3.93747646034e-06
2.38828217275e-06
1.96055797199e-06
1.83306689219e-06
1.79717227032e-06
1.78263257116e-06
1.77399307135e-06
1.76581295031e-06
1.75747348195e-06
1.74860986181e-06
1.7391325077e-06
1.72904830396e-06
1.71690184028e-06
1.70554663717e-06
1.69343273364e-06
1.680775493e-06
1.66730080251e-06
1.65306520578e-06
1.63812565445e-06
1.62233903818e-06
1.6060562556e-06
1.58901281373e-06
1.57142089016e-06
1.55325121614e-06
1.53480607345e-06
1.51603830475e-06
1.49717737802e-06
1.47957859492e-06
1.4608349908e-06
1.44236623036e-06
1.42463499288e-06
1.40752929493e-06
1.39141379504e-06
1.376287971e-06
1.36250426205e-06
1.35013796959e-06
1.33923549411e-06
1.33007617805e-06
1.32262080215e-06
1.31693040754e-06
1.31306224284e-06
1.30897056866e-06
0.767082
0.767082
0.767082
0.767082
0.767082
0.767082
0.767082
0.767082
0.767082
0.767082
0.767082
0.767082
0.767082
0.767082
0.767082
0.767082
0.767082
0.767082
0.767082
0.767082
0.767082
0.767082
0.767082
0.7670780305
0.729024744423
0.00489481058245
3.58063046004e-05
7.10118942663e-06
3.1180917697e-06
2.17890157304e-06
1.90518278314e-06
1.82360829185e-06
1.79913216377e-06
1.78817861789e-06
1.77934329618e-06
1.77054382446e-06
1.76143820457e-06
1.75195202391e-06
1.74189025564e-06
1.73119728241e-06
1.71999043632e-06
1.7065620785e-06
1.69392918039e-06
1.68076024481e-06
1.66675157848e-06
1.65196099137e-06
1.63648200272e-06
1.62016443949e-06
1.6033664695e-06
1.58582636268e-06
1.56776995565e-06
1.55072112871e-06
1.53190972277e-06
1.51282797248e-06
1.49381428081e-06
1.47482278119e-06
1.45615830124e-06
1.43780559422e-06
1.42027799536e-06
1.40340903252e-06
1.38759770267e-06
1.37281587894e-06
1.35940095908e-06
1.34740312575e-06
1.33685028699e-06
1.32797793183e-06
1.32078971714e-06
1.31531342855e-06
1.31159577438e-06
1.30784416736e-06
0.767082
0.767082
0.767082
0.767082
0.767082
0.767082
0.767082
0.767082
0.767082
0.767082
0.767082
0.767082
0.767082
0.767082
0.767082
0.767082
0.767082
0.767082
0.767082
0.767082
0.767082
0.767082
0.767082
0.764463686197
0.548224826823
0.000314930705648
1.95207470471e-05
5.24130053487e-06
2.74877516752e-06
2.10566499102e-06
1.91264383941e-06
1.8560788989e-06
1.83483237607e-06
1.82284605188e-06
1.8120526191e-06
1.80124894096e-06
1.79027210017e-06
1.77885002695e-06
1.76690037457e-06
1.75464893828e-06
1.74176781655e-06
1.728213961e-06
1.71411558498e-06
1.6992493802e-06
1.68373670319e-06
1.66761102918e-06
1.65070588694e-06
1.6332304832e-06
1.61499437687e-06
1.59645375324e-06
1.57730376609e-06
1.55795982048e-06
1.53822592527e-06
1.51845842228e-06
1.49865852679e-06
1.4792211715e-06
1.46007966715e-06
1.44146062542e-06
1.42354573898e-06
1.40655820567e-06
1.39057762824e-06
1.37578805893e-06
1.36358536097e-06
1.35155338653e-06
1.34102200716e-06
1.33208209225e-06
1.32491800311e-06
1.31952404162e-06
1.31586065434e-06
1.31229570393e-06
0.767082
0.767082
0.767082
0.767082
0.767082
0.767082
0.767082
0.767082
0.767082
0.767082
0.767082
0.767082
0.767082
0.767082
0.767082
0.767082
0.767082
0.767082
0.767082
0.767082
0.767082
0.767082
0.767082
0.755726445675
0.332516306044
0.000110877133581
1.29184390836e-05
4.31721991107e-06
2.58665945714e-06
2.10981715629e-06
1.96346130156e-06
1.91846497553e-06
1.89683924065e-06
1.88179089252e-06
1.86789582892e-06
1.85402860164e-06
1.83997066808e-06
1.82579140445e-06
1.81118771831e-06
1.79619711269e-06
1.78075053083e-06
1.76467718757e-06
1.7482868094e-06
1.73118488863e-06
1.71351594786e-06
1.6951886211e-06
1.67632605049e-06
1.65693085796e-06
1.63699351204e-06
1.61657968685e-06
1.59591882688e-06
1.57499911239e-06
1.5540414602e-06
1.53296379765e-06
1.51213100975e-06
1.49152711384e-06
1.47288647249e-06
1.45349271995e-06
1.43495937775e-06
1.41734079721e-06
1.40084144547e-06
1.38559796261e-06
1.37185950467e-06
1.35951599219e-06
1.34880822042e-06
1.33976630748e-06
1.3324349545e-06
1.32687527188e-06
1.32311693554e-06
1.31966717933e-06
0.767082
0.767082
0.767082
0.767082
0.767082
0.767082
0.767082
0.767082
0.767082
0.767082
0.767082
0.767082
0.767082
0.767082
0.767082
0.767082
0.767082
0.767082
0.767082
0.767082
0.767082
0.767082
0.767082
0.756448773542
0.112627426246
5.66757393871e-05
9.50414948218e-06
3.80459809389e-06
2.53347532972e-06
2.16207213472e-06
2.04652265773e-06
2.00527410296e-06
1.98099419206e-06
1.96196218525e-06
1.94398909895e-06
1.92606787884e-06
1.90824359693e-06
1.89023190679e-06
1.87211718471e-06
1.85378188293e-06
1.83508856571e-06
1.81608001215e-06
1.7965273563e-06
1.77655567646e-06
1.75600180907e-06
1.73513603847e-06
1.71368643123e-06
1.69180705607e-06
1.66954782216e-06
1.64700487321e-06
1.62575305315e-06
1.60283505918e-06
1.5800162516e-06
1.55725201487e-06
1.53489729876e-06
1.51296982029e-06
1.49157278646e-06
1.47114507747e-06
1.45152801531e-06
1.43313337412e-06
1.41585443065e-06
1.4000288479e-06
1.38558159635e-06
1.37281612147e-06
1.36305529069e-06
1.35359610438e-06
1.34599013956e-06
1.34028281589e-06
1.33642727506e-06
1.3329129716e-06
0.767082
0.767082
0.767082
0.767082
0.767082
0.767082
0.767082
0.767082
0.767082
0.767082
0.767082
0.767082
0.767082
0.767082
0.767082
0.767082
0.767082
0.767082
0.767082
0.767082
0.767082
0.767082
0.767075322585
0.709049167196
0.00277570681114
3.48742920801e-05
7.5680797934e-06
3.53402254972e-06
2.54223202331e-06
2.24515944935e-06
2.14923934796e-06
2.11143198353e-06
2.08569283858e-06
2.06067119096e-06
2.03807747771e-06
2.01571178565e-06
1.99341650229e-06
1.97108483016e-06
1.94882857854e-06
1.92642286414e-06
1.9038593626e-06
1.88092279467e-06
1.85790290189e-06
1.83437679341e-06
1.81224992195e-06
1.78802387239e-06
1.76349268447e-06
1.73870143382e-06
1.71364540094e-06
1.68848505388e-06
1.66319257779e-06
1.63803627642e-06
1.61309646895e-06
1.58835199883e-06
1.56406319798e-06
1.54043019187e-06
1.51748848504e-06
1.49698800737e-06
1.47607865518e-06
1.456503239e-06
1.43820586551e-06
1.42141403646e-06
1.40617426234e-06
1.39278150346e-06
1.38107893812e-06
1.37121621152e-06
1.36331368193e-06
1.35731856649e-06
1.35326433626e-06
1.34967067248e-06
0.767082
0.767082
0.767082
0.767082
0.767082
0.767082
0.767082
0.767082
0.767082
0.767082
0.767082
0.767082
0.767082
0.767082
0.767082
0.767082
0.767082
0.767082
0.767082
0.767082
0.767082
0.767082
0.76568151023
0.584258115705
0.000451093402472
2.3874086723e-05
6.41922337257e-06
3.40398856956e-06
2.61465355715e-06
2.36384649431e-06
2.27915736932e-06
2.23904512242e-06
2.20821928171e-06
2.17945026329e-06
2.15156960052e-06
2.12400680217e-06
2.09663738644e-06
2.0694623898e-06
2.04225455896e-06
2.01525804435e-06
1.98812756296e-06
1.96080140327e-06
1.93357043872e-06
1.90606753389e-06
1.8784405041e-06
1.85057492948e-06
1.82243456256e-06
1.79435598524e-06
1.76611265671e-06
1.73778330484e-06
1.7097284679e-06
1.68181207551e-06
1.65576286328e-06
1.62869498922e-06
1.6022384919e-06
1.57647565812e-06
1.55174886084e-06
1.52809168966e-06
1.50558314851e-06
1.48466684985e-06
1.46515554224e-06
1.44734065973e-06
1.43116943271e-06
1.41830372807e-06
1.405847729e-06
1.39540657187e-06
1.38705156923e-06
1.38071286463e-06
1.37642273802e-06
1.37273356636e-06
0.767082
0.767082
0.767082
0.767082
0.767082
0.767082
0.767082
0.767082
0.767082
0.767082
0.767082
0.767082
0.767082
0.767082
0.767082
0.767082
0.767082
0.767082
0.767082
0.767082
0.767082
0.767082
0.758410935495
0.428341475417
0.000177169778708
1.7517947524e-05
5.71498365364e-06
3.3699582995e-06
2.72604405096e-06
2.51639937178e-06
2.43515862047e-06
2.39002575654e-06
2.35244033055e-06
2.31685829666e-06
2.2821431737e-06
2.24832807716e-06
2.21491991326e-06
2.18178930923e-06
2.14923908315e-06
2.11683759678e-06
2.08451688769e-06
2.05234885581e-06
2.0202193604e-06
1.98807011227e-06
1.95591307396e-06
1.92382099228e-06
1.89170851695e-06
1.86133750464e-06
1.82954161773e-06
1.79782177882e-06
1.7663113094e-06
1.73534744062e-06
1.70489366354e-06
1.67511929044e-06
1.64615990092e-06
1.61821753722e-06
1.59280144545e-06
1.56714237831e-06
1.54302044669e-06
1.52039872519e-06
1.4993894839e-06
1.48032636971e-06
1.46306985855e-06
1.44788005108e-06
1.43470731974e-06
1.42358122968e-06
1.41469236971e-06
1.4079494425e-06
1.40337010544e-06
1.39952954353e-06
0.767082
0.767082
0.767082
0.767082
0.767082
0.767082
0.767082
0.767082
0.767082
0.767082
0.767082
0.767082
0.767082
0.767082
0.767082
0.767082
0.767082
0.767082
0.767082
0.767082
0.767082
0.767082
0.754422576041
0.25232315628
9.36758169747e-05
1.3586495789e-05
5.25537215106e-06
3.42534044183e-06
2.8847097436e-06
2.69794950044e-06
2.61805793953e-06
2.56551961941e-06
2.51918146149e-06
2.4752415714e-06
2.4326533309e-06
2.39127955977e-06
2.35078737916e-06
2.31096285246e-06
2.27166140041e-06
2.23312274387e-06
2.19488921838e-06
2.15693230878e-06
2.12110635949e-06
2.08382913667e-06
2.04666312945e-06
2.00969203008e-06
1.97301872078e-06
1.93668403211e-06
1.90062073657e-06
1.86503675098e-06
1.82995716349e-06
1.79705690558e-06
1.76339268313e-06
1.73068158508e-06
1.69890800969e-06
1.6682479917e-06
1.63900710067e-06
1.61124132139e-06
1.58504847546e-06
1.56219514665e-06
1.5397022296e-06
1.51909503815e-06
1.50063594021e-06
1.48418932129e-06
1.47014872711e-06
1.4583416244e-06
1.44879677328e-06
1.44162669112e-06
1.43677768016e-06
1.43282425412e-06
0.767082
0.767082
0.767082
0.767082
0.767082
0.767082
0.767082
0.767082
0.767082
0.767082
0.767082
0.767082
0.767082
0.767082
0.767082
0.767082
0.767082
0.767082
0.767082
0.767082
0.767082
0.767081848258
0.75868488922
0.0633459287689
5.61883286755e-05
1.10164926467e-05
4.98978972322e-06
3.5328934222e-06
3.07872333144e-06
2.91233845296e-06
2.82825750733e-06
2.76624076751e-06
2.70982089763e-06
2.65608975872e-06
2.60432593031e-06
2.55405072513e-06
2.50501556105e-06
2.45928501551e-06
2.41253337744e-06
2.36660462695e-06
2.32155954465e-06
2.2770933166e-06
2.23322515812e-06
2.18999028589e-06
2.14720623373e-06
2.10475077026e-06
2.06484908884e-06
2.02359671718e-06
1.98299854693e-06
1.94299341402e-06
1.90370706955e-06
1.86537908941e-06
1.82806736453e-06
1.79187072933e-06
1.75874481834e-06
1.72529939458e-06
1.69339918873e-06
1.66312817925e-06
1.63488555843e-06
1.60854727522e-06
1.58424305628e-06
1.56211131209e-06
1.54376425913e-06
1.52623811925e-06
1.51105684417e-06
1.49840603389e-06
1.48828052929e-06
1.48057920811e-06
1.4753166232e-06
1.47112219757e-06
0.767082
0.767082
0.767082
0.767082
0.767082
0.767082
0.767082
0.767082
0.767082
0.767082
0.767082
0.767082
0.767082
0.767082
0.767082
0.767082
0.767082
0.767082
0.767082
0.767082
0.767082
0.766977754056
0.670399854338
0.00163038864979
3.67055127381e-05
9.36532635227e-06
4.86805477165e-06
3.69782712818e-06
3.30903451933e-06
3.15595972697e-06
3.06573289417e-06
2.99295405844e-06
2.92523125837e-06
2.86039158329e-06
2.79995503721e-06
2.7393987145e-06
2.6808419913e-06
2.62378227574e-06
2.56838869623e-06
2.51419165808e-06
2.46129306561e-06
2.40948813695e-06
2.36060597126e-06
2.31050941625e-06
2.26129644489e-06
2.21300055576e-06
2.1654538992e-06
2.11871934885e-06
2.0729388575e-06
2.02995340299e-06
1.98618785637e-06
1.94362505988e-06
1.90226464475e-06
1.86244456682e-06
1.82417946552e-06
1.78749309653e-06
1.75443995424e-06
1.72146862092e-06
1.69081299863e-06
1.66234873238e-06
1.63608328612e-06
1.61218307337e-06
1.59081570117e-06
1.57201848116e-06
1.55582669372e-06
1.54386388449e-06
1.53285362692e-06
1.52453512271e-06
1.51895408816e-06
1.51464140401e-06
0.767082
0.767082
0.767082
0.767082
0.767082
0.767082
0.767082
0.767082
0.767082
0.767082
0.767082
0.767082
0.767082
0.767082
0.767082
0.767082
0.767082
0.767082
0.767082
0.767082
0.767082
0.762482180915
0.526692848401
0.000348260247735
2.591222753e-05
8.26833354786e-06
4.88393044265e-06
3.92318829053e-06
3.5852947296e-06
3.43696969893e-06
3.33530429133e-06
3.2487268101e-06
3.16979537947e-06
3.09161574358e-06
3.01679259639e-06
2.94455451926e-06
2.87495315238e-06
2.80744891473e-06
2.74429816493e-06
2.68059607784e-06
2.61861924598e-06
2.5582742375e-06
2.49945444716e-06
2.44182880363e-06
2.38551503869e-06
2.33245082357e-06
2.27850150731e-06
2.22584620141e-06
2.17431700482e-06
2.12419777218e-06
2.07551221647e-06
2.0301247162e-06
1.98446043778e-06
1.94061439419e-06
1.89852897424e-06
1.85842586796e-06
1.82046176066e-06
1.78641457987e-06
1.75305290797e-06
1.72220967058e-06
1.69382394746e-06
1.66798438337e-06
1.64502835127e-06
1.62472559394e-06
1.60741985313e-06
1.5928876555e-06
1.58115407753e-06
1.57396561297e-06
1.56787005359e-06
1.56330129458e-06
0.767082
0.767082
0.767082
0.767082
0.767082
0.767082
0.767082
0.767082
0.767082
0.767082
0.767082
0.767082
0.767082
0.767082
0.767082
0.767082
0.767082
0.767082
0.767082
0.767082
0.767082
0.755298459559
0.338581839094
0.000144585651469
1.9412000085e-05
7.61628182553e-06
5.01389145142e-06
4.21559498365e-06
3.91307191386e-06
3.75771980129e-06
3.64240667919e-06
3.5388118974e-06
3.44095101569e-06
3.34757891112e-06
3.25814643697e-06
3.17511163989e-06
3.0925888548e-06
3.01310046215e-06
2.93640913682e-06
2.86205329331e-06
2.79022618032e-06
2.72262883323e-06
2.65460518194e-06
2.58845471008e-06
2.52413776769e-06
2.46136080405e-06
2.40256567135e-06
2.34318739332e-06
2.2853965895e-06
2.22953912739e-06
2.17539268648e-06
2.12298879379e-06
2.07460209781e-06
2.02630045671e-06
1.98022428472e-06
1.93642515871e-06
1.89493706489e-06
1.85610046151e-06
1.82188656955e-06
1.78836925355e-06
1.75765223272e-06
1.72988349086e-06
1.70514899279e-06
1.6832929394e-06
1.66461186168e-06
1.64890321841e-06
1.63630876882e-06
1.62673766536e-06
1.62196532831e-06
1.61534667634e-06
0.767082
0.767082
0.767082
0.767082
0.767082
0.767082
0.767082
0.767082
0.767082
0.767082
0.767082
0.767082
0.767082
0.767082
0.767082
0.767082
0.767082
0.767082
0.767082
0.767082
0.767082
0.758080856826
0.121232140885
7.67432616555e-05
1.53964664501e-05
7.24306092565e-06
5.23557354974e-06
4.57101143674e-06
4.28639864185e-06
4.1208077088e-06
3.98481441016e-06
3.86019293775e-06
3.74300058899e-06
3.63453652266e-06
3.52832762913e-06
3.42718782975e-06
3.33016945294e-06
3.2368361346e-06
3.15023892005e-06
3.06385923356e-06
2.98046888963e-06
2.8999032968e-06
2.82458598171e-06
2.74893452973e-06
2.67576556849e-06
2.60459317554e-06
2.53568868963e-06
2.47128844409e-06
2.40666768303e-06
2.34423328525e-06
2.28415814152e-06
2.22618653831e-06
2.17287127534e-06
2.11964810063e-06
2.06915373322e-06
2.0213817777e-06
1.97639656703e-06
1.93413055832e-06
1.89686326677e-06
1.86064838727e-06
1.82752454065e-06
1.79768203867e-06
1.77098668831e-06
1.74746980068e-06
1.72742810624e-06
1.71058936777e-06
1.69703178501e-06
1.68679711368e-06
1.681684744e-06
1.67663808107e-06
0.767082
0.767082
0.767082
0.767082
0.767082
0.767082
0.767082
0.767082
0.767082
0.767082
0.767082
0.767082
0.767082
0.767082
0.767082
0.767082
0.767082
0.767082
0.767082
0.767082
0.766967789593
0.672506127163
0.00229576287575
4.63503189013e-05
1.28155954317e-05
7.12127306599e-06
5.54508421807e-06
4.9763332618e-06
4.70672642197e-06
4.52413250094e-06
4.36502986127e-06
4.22028051188e-06
4.08114014946e-06
3.94891680076e-06
3.82354861144e-06
3.70722163886e-06
3.59365966572e-06
3.48490330609e-06
3.38116451749e-06
3.28407121837e-06
3.18814404817e-06
3.09572185253e-06
3.0067098386e-06
2.9231762396e-06
2.84027623716e-06
2.76000968768e-06
2.68252245814e-06
2.60784243629e-06
2.53817918034e-06
2.46861535412e-06
2.40184289111e-06
2.33790670169e-06
2.27688796466e-06
2.22086785648e-06
2.1656690182e-06
2.1135751573e-06
2.06456901964e-06
2.01870778201e-06
1.9782781748e-06
1.93912669261e-06
1.90353372372e-06
1.87137678108e-06
1.84265184516e-06
1.81757534836e-06
1.79595404896e-06
1.77786713396e-06
1.7652238016e-06
1.75416573152e-06
1.74665034843e-06
1.74137987971e-06
0.767082
0.767082
0.767082
0.767082
0.767082
0.767082
0.767082
0.767082
0.767082
0.767082
0.767082
0.767082
0.767082
0.767082
0.767082
0.767082
0.767082
0.767082
0.767082
0.767082
0.760177934607
0.495867650494
0.000346486513299
3.11681033994e-05
1.13175055333e-05
7.20927160947e-06
5.95728933642e-06
5.45604853054e-06
5.18001397932e-06
4.97188021001e-06
4.78809632581e-06
4.61344539638e-06
4.44886482899e-06
4.29730228339e-06
4.15018893412e-06
4.01103239066e-06
3.8786731165e-06
3.75554412816e-06
3.63536179859e-06
3.52019711204e-06
3.41321157936e-06
3.30755573648e-06
3.20633153457e-06
3.10884939343e-06
3.01783868522e-06
2.92777744138e-06
2.84086511663e-06
2.75740161902e-06
2.67986371404e-06
2.60275537831e-06
2.52902494337e-06
2.4586383475e-06
2.39383171023e-06
2.33008814465e-06
2.269762327e-06
2.212941329e-06
2.15957331812e-06
2.10996720585e-06
2.06636361201e-06
2.02406465817e-06
1.98559075913e-06
1.9509438416e-06
1.92020055533e-06
1.89325107414e-06
1.87004066162e-06
1.85274784741e-06
1.83714913335e-06
1.82528056205e-06
1.8171109431e-06
1.81159893328e-06
0.767082
0.767082
0.767082
0.767082
0.767082
0.767082
0.767082
0.767082
0.767082
0.767082
0.767082
0.767082
0.767082
0.767082
0.767082
0.767082
0.767082
0.767082
0.767082
0.767082
0.754386816516
0.255830670408
0.000132189832985
2.29406072465e-05
1.04909680494e-05
7.49426320761e-06
6.47022359786e-06
6.00574911719e-06
5.71479149479e-06
5.4719847961e-06
5.25082595094e-06
5.04488155564e-06
4.85531101923e-06
4.67351086034e-06
4.50610372667e-06
4.34431307759e-06
4.19108728845e-06
4.04896069432e-06
3.91069613609e-06
3.77892959383e-06
3.65349929359e-06
3.53626286976e-06
3.42139199495e-06
3.31132493762e-06
3.20886600648e-06
3.10748937293e-06
3.01073996152e-06
2.91786397467e-06
2.83158047245e-06
2.74652662816e-06
2.66526880058e-06
2.58780771746e-06
2.51696292024e-06
2.44721203923e-06
2.38147774468e-06
2.31974387146e-06
2.26200811447e-06
2.2105564072e-06
2.1608705487e-06
2.11535451939e-06
2.07404759639e-06
2.03687543696e-06
2.00371637691e-06
1.97699989706e-06
1.95214687712e-06
1.9313657355e-06
1.91463651524e-06
1.9019902768e-06
1.89325249954e-06
1.88734240365e-06
0.767082
0.767082
0.767082
0.767082
0.767082
0.767082
0.767082
0.767082
0.767082
0.767082
0.767082
0.767082
0.767082
0.767082
0.767082
0.767082
0.767082
0.767082
0.767082
0.76707527249
0.718723397603
0.0177705696448
6.7930248184e-05
1.82245090993e-05
1.01748765855e-05
7.93509968736e-06
7.0705467128e-06
6.62322952463e-06
6.30088083784e-06
6.01791331188e-06
5.76213126537e-06
5.52046037822e-06
5.29434120722e-06
5.08639214327e-06
4.88775573919e-06
4.70431094411e-06
4.52821569996e-06
4.3615065127e-06
4.20708110063e-06
4.05669762097e-06
3.91421489215e-06
3.78167767916e-06
3.65168185851e-06
3.52818336252e-06
3.41294586723e-06
3.30002668559e-06
3.19206920147e-06
3.08886490975e-06
2.99337286789e-06
2.89975368211e-06
2.81052148001e-06
2.7256709131e-06
2.64824852264e-06
2.57234514384e-06
2.50072880671e-06
2.43387282466e-06
2.3739884806e-06
2.31594863159e-06
2.26246944526e-06
2.21352161195e-06
2.1690666797e-06
2.12905860598e-06
2.09592678674e-06
2.06480155313e-06
2.03816258705e-06
2.01592760776e-06
1.99805563217e-06
1.9843861875e-06
1.97495548924e-06
1.96873538271e-06
0.767082
0.767082
0.767082
0.767082
0.767082
0.767082
0.767082
0.767082
0.767082
0.767082
0.767082
0.767082
0.767082
0.767082
0.767082
0.767082
0.767082
0.767082
0.767082
0.761153200076
0.52572739453
0.000530027556727
4.15259894053e-05
1.56527894692e-05
1.02305026968e-05
8.5111107671e-06
7.75930734455e-06
7.30373242515e-06
6.93882052495e-06
6.61538681206e-06
6.312139375e-06
6.03531176316e-06
5.77339299324e-06
5.53284901459e-06
5.30362258337e-06
5.08868683385e-06
4.89038508957e-06
4.69971728725e-06
4.52363408051e-06
4.35356322863e-06
4.19229334102e-06
4.04279653526e-06
3.89734168389e-06
3.75860083918e-06
3.63039519845e-06
3.5047041013e-06
3.38491232278e-06
3.27432468807e-06
3.16565424296e-06
3.06255952294e-06
2.96476833957e-06
2.87513908966e-06
2.78761062873e-06
2.70509237009e-06
2.62768580647e-06
2.55809336205e-06
2.49065120938e-06
2.42819689218e-06
2.37071462437e-06
2.31813678396e-06
2.27309940354e-06
2.2301906492e-06
2.19216728678e-06
2.15904063008e-06
2.13052819389e-06
2.10680655749e-06
2.0875603752e-06
2.07302937961e-06
2.06289289224e-06
2.05858564749e-06
0.767082
0.767082
0.767082
0.767082
0.767082
0.767082
0.767082
0.767082
0.767082
0.767082
0.767082
0.767082
0.767082
0.767082
0.767082
0.767082
0.767082
0.767082
0.767082
0.754570176093
0.251202536015
0.000153773486725
2.92884926534e-05
1.43912971178e-05
1.06398982201e-05
9.25261750038e-06
8.54780990141e-06
8.05759230821e-06
7.63792680845e-06
7.25692606869e-06
6.91017797417e-06
6.58979090697e-06
6.28762541592e-06
6.01119941395e-06
5.74837853177e-06
5.50293567351e-06
5.27690741316e-06
5.06079746032e-06
4.86096345884e-06
4.66900478316e-06
4.48741020225e-06
4.31980503718e-06
4.15716109801e-06
4.00649847379e-06
3.86000768933e-06
3.72107866194e-06
3.58900992985e-06
3.46691512311e-06
3.34794431049e-06
3.23503934665e-06
3.13163635016e-06
3.03033265259e-06
2.93536029647e-06
2.84594028714e-06
2.765251624e-06
2.68711292436e-06
2.61454482519e-06
2.5472792331e-06
2.48855037095e-06
2.43215718768e-06
2.38112926162e-06
2.33536263578e-06
2.29475390708e-06
2.2593147447e-06
2.2316845971e-06
2.2061332726e-06
2.18559027668e-06
2.16997985266e-06
2.15905546979e-06
2.15193562991e-06
0.767082
0.767082
0.767082
0.767082
0.767082
0.767082
0.767082
0.767082
0.767082
0.767082
0.767082
0.767082
0.767082
0.767082
0.767082
0.767082
0.767082
0.767082
0.766947871919
0.677408727141
0.00634676434609
7.32704699849e-05
2.29816151334e-05
1.39870438124e-05
1.12814328479e-05
1.01142648276e-05
9.41933415568e-06
8.87234003775e-06
8.39364097987e-06
7.95126386026e-06
7.55114582221e-06
7.17676935277e-06
6.83615005075e-06
6.51476533341e-06
6.22098686789e-06
5.942764538e-06
5.68669175863e-06
5.44279866775e-06
5.2182225553e-06
5.00257526757e-06
4.80400944927e-06
4.61239683147e-06
4.43121796568e-06
4.26403647985e-06
4.10166708051e-06
3.94834956958e-06
3.80716950577e-06
3.66970715175e-06
3.53922424596e-06
3.42012166956e-06
3.30381464412e-06
3.19417223354e-06
3.09454485568e-06
2.99797014836e-06
2.90759933746e-06
2.82350067095e-06
2.74877319895e-06
2.67660831334e-06
2.61043607352e-06
2.55012039296e-06
2.49563104809e-06
2.44677622789e-06
2.40644097897e-06
2.36861046312e-06
2.33627298221e-06
2.30909460339e-06
2.28729734522e-06
2.27056977726e-06
2.25883408048e-06
2.25128415449e-06
0.767082
0.767082
0.767082
0.767082
0.767082
0.767082
0.767082
0.767082
0.767082
0.767082
0.767082
0.767082
0.767082
0.767082
0.767082
0.767082
0.767082
0.767082
0.7562133685
0.422106863291
0.000353134660884
4.47760143951e-05
1.9997775605e-05
1.4220793897e-05
1.21429129854e-05
1.10979960316e-05
1.03624842619e-05
9.750600921e-06
9.19432488839e-06
8.69287619426e-06
8.23385405453e-06
7.80554422731e-06
7.41688576525e-06
7.05195125031e-06
6.71940800257e-06
6.41064150908e-06
6.11772094939e-06
5.84402541141e-06
5.59291318053e-06
5.35250600737e-06
5.13141370133e-06
4.91893753111e-06
4.72304877718e-06
4.53409845103e-06
4.35575081348e-06
4.19145626091e-06
4.0321300135e-06
3.88156021898e-06
3.74389829227e-06
3.61013408027e-06
3.48425078108e-06
3.3696197946e-06
3.2583717563e-06
3.15452534389e-06
3.05750318338e-06
2.97070663933e-06
2.88710254616e-06
2.81002938115e-06
2.73938462034e-06
2.67856428153e-06
2.62036647249e-06
2.56829385443e-06
2.52215407372e-06
2.48188451797e-06
2.4474750108e-06
2.41851054284e-06
2.39841791447e-06
2.38044449693e-06
2.36777567258e-06
2.35965138116e-06
0.767082
0.767082
0.767082
0.767082
0.767082
0.767082
0.767082
0.767082
0.767082
0.767082
0.767082
0.767082
0.767082
0.767082
0.767082
0.767082
0.767082
0.767077956968
0.746265487364
0.0943502544386
0.00011887501518
3.23938079287e-05
1.88405330948e-05
1.48962237407e-05
1.32068292576e-05
1.21836692657e-05
1.13806562984e-05
1.06837772527e-05
1.00480053959e-05
9.47591671507e-06
8.95285016313e-06
8.4679654033e-06
8.02839165679e-06
7.62259050214e-06
7.24164846455e-06
6.89507348849e-06
6.56736959902e-06
6.26801235207e-06
5.98311248333e-06
5.7220189342e-06
5.4722442636e-06
5.24303229162e-06
5.02254181161e-06
4.8148427977e-06
4.62449313521e-06
4.4403988441e-06
4.26685080167e-06
4.10768133754e-06
3.95359975232e-06
3.80884868954e-06
3.6770173567e-06
3.54905986567e-06
3.42966386797e-06
3.32192258979e-06
3.21803479321e-06
3.12150092234e-06
3.03218390064e-06
2.95406303092e-06
2.87874168991e-06
2.81031402847e-06
2.74857074151e-06
2.69327519741e-06
2.64791978446e-06
2.60514833051e-06
2.56855608388e-06
2.5378172626e-06
2.5130572392e-06
2.49393954604e-06
2.480304115e-06
2.47162260681e-06
0.767082
0.767082
0.767082
0.767082
0.767082
0.767082
0.767082
0.767082
0.767082
0.767082
0.767082
0.767082
0.767082
0.767082
0.767082
0.767082
0.767082
0.758882038501
0.502506236118
0.000712876290366
6.2454775205e-05
2.68393862073e-05
1.87641513056e-05
1.58975291318e-05
1.44035431106e-05
1.33446632521e-05
1.24552238985e-05
1.16636113763e-05
1.09420478015e-05
1.02938660188e-05
9.70418494944e-06
9.15811150696e-06
8.66386429321e-06
8.21051292955e-06
7.78599404912e-06
7.39921386837e-06
7.03530577381e-06
6.70249288097e-06
6.39334623899e-06
6.09943397637e-06
5.824732093e-06
5.57301300725e-06
5.33171922476e-06
5.11069855803e-06
4.89779703226e-06
4.7028309442e-06
4.51461680376e-06
4.33780263073e-06
4.1764047732e-06
4.02016968207e-06
3.87358850199e-06
3.74124906308e-06
3.61292150193e-06
3.49342338692e-06
3.38221332263e-06
3.28349385156e-06
3.18834907979e-06
3.10092910122e-06
3.02111069243e-06
2.9525360852e-06
2.88696894844e-06
2.82834720588e-06
2.77649541247e-06
2.73153625673e-06
2.69278156225e-06
2.66407135844e-06
2.637620789e-06
2.61726985007e-06
2.60266463477e-06
2.5933648923e-06
0.767082
0.767082
0.767082
0.767082
0.767082
0.767082
0.767082
0.767082
0.767082
0.767082
0.767082
0.767082
0.767082
0.767082
0.767082
0.767082
0.767079714443
0.757068995873
0.151850319085
0.000161867770286
4.23494129712e-05
2.46591709382e-05
1.94904264464e-05
1.71858091666e-05
1.57293417348e-05
1.45823577851e-05
1.35814846517e-05
1.26852645421e-05
1.18705430557e-05
1.11414021195e-05
1.04806949719e-05
9.87825861097e-06
9.32087640767e-06
8.81551681742e-06
8.35234929363e-06
7.91802580366e-06
7.52309930618e-06
7.15050178114e-06
6.81071550633e-06
6.48848195845e-06
6.19361202831e-06
5.9124817998e-06
5.65549997661e-06
5.4095809888e-06
5.18485710824e-06
4.96843019987e-06
4.76543730082e-06
4.58005162719e-06
4.40128358036e-06
4.23915560406e-06
4.08215149996e-06
3.93572782172e-06
3.79895579659e-06
3.67648849177e-06
3.55810323112e-06
3.44857307427e-06
3.35225855685e-06
3.25948326838e-06
3.17466645813e-06
3.09775099738e-06
3.02840141276e-06
2.97096647348e-06
2.91610188425e-06
2.86826101917e-06
2.82709638784e-06
2.79280893448e-06
2.76471884671e-06
2.74313136663e-06
2.72756346766e-06
2.71763027554e-06
0.767082
0.767082
0.767082
0.767082
0.767082
0.767082
0.767082
0.767082
0.767082
0.767082
0.767082
0.767082
0.767082
0.767082
0.767082
0.767082
0.758588658582
0.50752061192
0.000936632044385
7.73710708118e-05
3.41647475862e-05
2.43604603307e-05
2.06891848719e-05
1.86309799137e-05
1.71294201335e-05
1.58600697955e-05
1.47382980871e-05
1.37352231647e-05
1.28339757196e-05
1.20204556608e-05
1.12753774464e-05
1.06067539053e-05
9.99782853939e-06
9.43401138955e-06
8.92323019214e-06
8.45415788225e-06