/*--------------------------------*- C++ -*----------------------------------*\
| =========                 |                                                 |
| \\      /  F ield         | foam-extend: Open Source CFD                    |
|  \\    /   O peration     | Version:     4.1                                |
|   \\  /    A nd           | Web:         http://www.foam-extend.org         |
|    \\/     M anipulation  |                                                 |
\*---------------------------------------------------------------------------*/
FoamFile
{
    version     2.0;
    format      ascii;
    class       volScalarField;
    location    "0.0006";
    object      N2Plus;
}
// * * * * * * * * * * * * * * * * * * * * * * * * * * * * * * * * * * * * * //

dimensions      [0 0 0 0 0 0 0];

internalField   nonuniform List<scalar> 
8400
(
7.21720707992e-185
7.21720707996e-185
7.21720708e-185
7.21720708004e-185
7.21720708008e-185
7.21720708012e-185
7.21720708016e-185
7.2172070802e-185
7.21720708023e-185
7.21720708027e-185
7.21720708031e-185
7.21720708034e-185
7.21720708038e-185
7.21720708041e-185
7.21720708044e-185
7.21720708048e-185
7.21720708051e-185
7.21720708055e-185
7.21720708108e-185
7.21720711051e-185
7.21720882753e-185
7.21730533344e-185
7.2228318186e-185
7.33785516388e-185
5.51839045905e-71
1.5447164407e-14
2.20865372587e-05
1.75087225649e-05
1.16257895548e-05
9.17497884972e-06
8.35818392473e-06
8.10503529988e-06
8.00947451247e-06
7.95620181211e-06
7.9183070981e-06
7.88463803279e-06
7.85332563079e-06
7.8235043406e-06
7.79458317694e-06
7.7661796208e-06
7.73802591785e-06
7.70958419573e-06
7.68399326936e-06
7.65422462275e-06
7.62355366668e-06
7.59165888379e-06
7.55838417941e-06
7.52356970463e-06
7.48709655224e-06
7.449098545e-06
7.40946102956e-06
7.36818915389e-06
7.32546122411e-06
7.28130534663e-06
7.23597307998e-06
7.19325408394e-06
7.14682032045e-06
7.10030426082e-06
7.05425376214e-06
7.00919999751e-06
6.96600528533e-06
6.92491896407e-06
6.88673267578e-06
6.85184176809e-06
6.82083739178e-06
6.79422502244e-06
6.77241215453e-06
6.75576052675e-06
6.74459328467e-06
6.7365305963e-06
7.21720706845e-185
7.21720706847e-185
7.21720706848e-185
7.2172070685e-185
7.21720706852e-185
7.21720706853e-185
7.21720706855e-185
7.21720706856e-185
7.21720706858e-185
7.21720706859e-185
7.21720706861e-185
7.21720706862e-185
7.21720706864e-185
7.21720706865e-185
7.21720706867e-185
7.21720706868e-185
7.21720706869e-185
7.21720706875e-185
7.21720707139e-185
7.21720722444e-185
7.21721613553e-185
7.21771185918e-185
7.24568658389e-185
7.6166496456e-185
1.57649731724e-32
4.51009622708e-07
2.34410504231e-05
1.44171607162e-05
1.0129458492e-05
8.49813917218e-06
8.01029216384e-06
7.87006922795e-06
7.82133154487e-06
7.79638130343e-06
7.77828555016e-06
7.76018611848e-06
7.74130969018e-06
7.72138910281e-06
7.70034101383e-06
7.67826467019e-06
7.6548636486e-06
7.63003855351e-06
7.60373110312e-06
7.57578426572e-06
7.54616992872e-06
7.51499562917e-06
7.48194351726e-06
7.44699602507e-06
7.41011932696e-06
7.37144540729e-06
7.33113819299e-06
7.28915870855e-06
7.24577693429e-06
7.20107157244e-06
7.15535130217e-06
7.10909907668e-06
7.06277752413e-06
7.01664791327e-06
6.97120183629e-06
6.92721223078e-06
6.8850829104e-06
6.84529014437e-06
6.8083487463e-06
6.77485429346e-06
6.74539625284e-06
6.72019459371e-06
6.69960798361e-06
6.68401047121e-06
6.67350099977e-06
6.66614152503e-06
7.2172070633e-185
7.21720706331e-185
7.21720706332e-185
7.21720706333e-185
7.21720706334e-185
7.21720706335e-185
7.21720706336e-185
7.21720706337e-185
7.21720706338e-185
7.21720706339e-185
7.2172070634e-185
7.2172070634e-185
7.21720706341e-185
7.21720706342e-185
7.21720706343e-185
7.21720706344e-185
7.21720706345e-185
7.21720706369e-185
7.21720707741e-185
7.21720788639e-185
7.21725419822e-185
7.21991126469e-185
7.29693063926e-185
2.32155011261e-71
2.04186098399e-17
1.06298753778e-05
1.88041822021e-05
1.20897770709e-05
9.13815914722e-06
8.13558438931e-06
7.85238431724e-06
7.76952578123e-06
7.74345355205e-06
7.72653753678e-06
7.7140228981e-06
7.70064044368e-06
7.68607313056e-06
7.66999617536e-06
7.65229645279e-06
7.63290373012e-06
7.60843998699e-06
7.58543754556e-06
7.56051853561e-06
7.53383789183e-06
7.50510012301e-06
7.47427973057e-06
7.44136878754e-06
7.40632842188e-06
7.36951835159e-06
7.33073207549e-06
7.29012228477e-06
7.24783346295e-06
7.20434061968e-06
7.15976258287e-06
7.1144775247e-06
7.07194544278e-06
7.02617197468e-06
6.98081118519e-06
6.93668213514e-06
6.89397680182e-06
6.8532290298e-06
6.81488605018e-06
6.77963574297e-06
6.74783840159e-06
6.71979499315e-06
6.69599041985e-06
6.67660602641e-06
6.66186341538e-06
6.65192247386e-06
6.64516357126e-06
7.21720706034e-185
7.21720706035e-185
7.21720706035e-185
7.21720706036e-185
7.21720706037e-185
7.21720706037e-185
7.21720706038e-185
7.21720706039e-185
7.21720706039e-185
7.2172070604e-185
7.21720706041e-185
7.21720706041e-185
7.21720706042e-185
7.21720706043e-185
7.21720706043e-185
7.21720706044e-185
7.21720706046e-185
7.2172070616e-185
7.21720712816e-185
7.21721104089e-185
7.21743117778e-185
7.2300631117e-185
7.4399036653e-185
9.63021952571e-47
1.11130405023e-08
2.71195360831e-05
1.58008537303e-05
1.06593638465e-05
8.63281559656e-06
8.00637994082e-06
7.83087791814e-06
7.77417718438e-06
7.75239672884e-06
7.73853055681e-06
7.72459167309e-06
7.70956408312e-06
7.69327300905e-06
7.67564084534e-06
7.65645111453e-06
7.63559114006e-06
7.61300597826e-06
7.5852298034e-06
7.55883802054e-06
7.53067066055e-06
7.50041105276e-06
7.46804036187e-06
7.43357513951e-06
7.39699905963e-06
7.35869136242e-06
7.31847652579e-06
7.27653064063e-06
7.23656760959e-06
7.19196975167e-06
7.14639493716e-06
7.10046012105e-06
7.05435015642e-06
7.00845149001e-06
6.9631697885e-06
6.91934115283e-06
6.87708959785e-06
6.83695466569e-06
6.79935015116e-06
6.76490810801e-06
6.73393961177e-06
6.70670481808e-06
6.68361394565e-06
6.66486251829e-06
6.65061328662e-06
6.64100098586e-06
6.63459515267e-06
7.21720705844e-185
7.21720705845e-185
7.21720705845e-185
7.21720705846e-185
7.21720705846e-185
7.21720705847e-185
7.21720705847e-185
7.21720705848e-185
7.21720705848e-185
7.21720705849e-185
7.21720705849e-185
7.2172070585e-185
7.2172070585e-185
7.21720705851e-185
7.21720705851e-185
7.21720705852e-185
7.21720705859e-185
7.2172070622e-185
7.2172072726e-185
7.21721951852e-185
7.21790105563e-185
7.25613968192e-185
7.73053286305e-185
1.33094590431e-24
1.20519088492e-06
2.22252074957e-05
1.3808980584e-05
9.87966511097e-06
8.43848968679e-06
8.01914647761e-06
7.89540236984e-06
7.85300889968e-06
7.82830305124e-06
7.80988149672e-06
7.79122116992e-06
7.77168769126e-06
7.75105893893e-06
7.72913366904e-06
7.70576143304e-06
7.68110017791e-06
7.65476422699e-06
7.62667143138e-06
7.59673192988e-06
7.56484716281e-06
7.5310904907e-06
7.49548683573e-06
7.45786290732e-06
7.41831204468e-06
7.37684943386e-06
7.333987904e-06
7.2895450358e-06
7.24396447919e-06
7.19729468942e-06
7.14989660179e-06
7.10217972274e-06
7.05476660131e-06
7.00777731412e-06
6.96165964899e-06
6.91701125522e-06
6.87433554638e-06
6.83392285366e-06
6.79621192123e-06
6.76499160362e-06
6.73395502943e-06
6.70673156441e-06
6.68361487513e-06
6.66494381207e-06
6.65082096315e-06
6.64128427133e-06
6.63504961925e-06
7.21720705714e-185
7.21720705714e-185
7.21720705715e-185
7.21720705715e-185
7.21720705715e-185
7.21720705716e-185
7.21720705716e-185
7.21720705717e-185
7.21720705717e-185
7.21720705718e-185
7.21720705718e-185
7.21720705718e-185
7.21720705719e-185
7.21720705719e-185
7.2172070572e-185
7.2172070572e-185
7.21720705739e-185
7.21720706807e-185
7.21720770225e-185
7.21724439316e-185
7.21935280553e-185
7.28924617562e-185
1.64607846592e-71
3.82107515672e-18
8.00035153894e-06
1.94661005878e-05
1.25352330247e-05
9.46422922813e-06
8.41916124598e-06
8.12281700495e-06
8.02607006723e-06
7.98648417275e-06
7.95573716368e-06
7.93000816807e-06
7.90441408379e-06
7.87821119297e-06
7.85116099992e-06
7.8231975016e-06
7.79403093221e-06
7.76353627642e-06
7.73157283695e-06
7.69800019265e-06
7.66304631537e-06
7.62630218518e-06
7.58774825628e-06
7.5473474675e-06
7.50528267858e-06
7.4615924296e-06
7.41622573832e-06
7.36933160941e-06
7.32132738852e-06
7.27235736794e-06
7.2227151753e-06
7.17258284308e-06
7.12235333176e-06
7.07245571971e-06
7.02669913123e-06
6.97892281418e-06
6.93283535478e-06
6.88875807421e-06
6.84715499927e-06
6.80851993103e-06
6.77335928e-06
6.74178017703e-06
6.71414930784e-06
6.69072056569e-06
6.67171588068e-06
6.65729369989e-06
6.64755386691e-06
6.6413328382e-06
7.2172070562e-185
7.2172070562e-185
7.21720705621e-185
7.21720705621e-185
7.21720705621e-185
7.21720705622e-185
7.21720705622e-185
7.21720705622e-185
7.21720705623e-185
7.21720705623e-185
7.21720705623e-185
7.21720705624e-185
7.21720705624e-185
7.21720705624e-185
7.21720705625e-185
7.21720705626e-185
7.21720705677e-185
7.21720708661e-185
7.21720884101e-185
7.21730817329e-185
7.22302244459e-185
7.34177453196e-185
5.74319317323e-71
2.56905667042e-14
2.29167561494e-05
1.74082254784e-05
1.1650062867e-05
9.25578013104e-06
8.50466091099e-06
8.28649639187e-06
8.20732453816e-06
8.16285094267e-06
8.12410260958e-06
8.08984605997e-06
8.05589209429e-06
8.02153966524e-06
7.98662990952e-06
7.95094439409e-06
7.91448805053e-06
7.87707602613e-06
7.8384784808e-06
7.79862180402e-06
7.7572678222e-06
7.71436385358e-06
7.66988624785e-06
7.624068258e-06
7.57662144263e-06
7.5276230038e-06
7.47733636578e-06
7.42594694898e-06
7.37686171713e-06
7.32369358318e-06
7.27000329269e-06
7.21616519516e-06
7.16274841753e-06
7.10987998663e-06
7.05795941805e-06
7.00778378599e-06
6.9594553325e-06
6.91357768915e-06
6.87037282843e-06
6.83030781183e-06
6.79370449346e-06
6.76109414284e-06
6.73601030729e-06
6.71184426111e-06
6.69227398945e-06
6.67743759908e-06
6.66740573041e-06
6.6610072064e-06
7.2172070555e-185
7.2172070555e-185
7.2172070555e-185
7.21720705551e-185
7.21720705551e-185
7.21720705551e-185
7.21720705552e-185
7.21720705552e-185
7.21720705552e-185
7.21720705553e-185
7.21720705553e-185
7.21720705553e-185
7.21720705553e-185
7.21720705554e-185
7.21720705554e-185
7.21720705557e-185
7.21720705695e-185
7.21720713786e-185
7.21721188691e-185
7.21747949839e-185
7.23285459421e-185
7.47571738251e-185
1.56986251279e-46
3.47360919886e-08
2.64353586553e-05
1.58690736737e-05
1.10636084986e-05
9.21334016838e-06
8.65091169061e-06
8.48647817799e-06
8.41502421047e-06
8.36925632551e-06
8.32654173418e-06
8.28052668938e-06
8.23788471745e-06
8.19502876514e-06
8.15163692961e-06
8.1076441238e-06
8.06312643664e-06
8.0178305046e-06
7.97151353319e-06
7.92401975738e-06
7.87561093719e-06
7.82586217124e-06
7.77827695541e-06
7.72590359141e-06
7.67215268053e-06
7.61731077765e-06
7.56143093307e-06
7.50454437524e-06
7.44694076245e-06
7.389053587e-06
7.33104280516e-06
7.27310878854e-06
7.215626572e-06
7.15920880394e-06
7.10415442883e-06
7.05416175607e-06
7.00309770454e-06
6.95474798672e-06
6.9093342354e-06
6.86729105207e-06
6.82901222939e-06
6.79500751801e-06
6.76530084522e-06
6.74018072342e-06
6.71987895538e-06
6.7044605467e-06
6.69401117435e-06
6.6874240264e-06
7.21720705496e-185
7.21720705496e-185
7.21720705496e-185
7.21720705496e-185
7.21720705497e-185
7.21720705497e-185
7.21720705497e-185
7.21720705498e-185
7.21720705498e-185
7.21720705498e-185
7.21720705498e-185
7.21720705499e-185
7.21720705499e-185
7.21720705499e-185
7.21720705499e-185
7.21720705505e-185
7.21720705825e-185
7.21720724417e-185
7.21721805107e-185
7.21781908652e-185
7.25152622035e-185
7.68229628601e-185
1.44811682326e-27
7.41294782656e-07
2.3191009723e-05
1.46955496523e-05
1.07191743451e-05
9.2847679571e-06
8.87568477568e-06
8.73466921393e-06
8.66292427817e-06
8.60791702166e-06
8.55509843978e-06
8.50270505288e-06
8.45061305914e-06
8.39837717729e-06
8.3459085325e-06
8.29296852862e-06
8.23949474935e-06
8.18564801397e-06
8.13094303401e-06
8.07527001012e-06
8.01894814473e-06
7.9615995063e-06
7.9032565626e-06
7.84375506216e-06
7.78316568815e-06
7.72192244746e-06
7.6597248899e-06
7.59682391883e-06
7.53376467545e-06
7.47042245934e-06
7.41072879047e-06
7.34814835399e-06
7.28631168172e-06
7.22568030788e-06
7.16691664287e-06
7.11014455596e-06
7.05580464102e-06
7.00466866912e-06
6.95679144752e-06
6.91266316017e-06
6.87250197966e-06
6.84006985636e-06
6.80878676263e-06
6.78240511417e-06
6.76112766101e-06
6.74495649173e-06
6.73397539249e-06
6.72714015343e-06
7.21720705453e-185
7.21720705453e-185
7.21720705453e-185
7.21720705454e-185
7.21720705454e-185
7.21720705454e-185
7.21720705454e-185
7.21720705455e-185
7.21720705455e-185
7.21720705455e-185
7.21720705455e-185
7.21720705456e-185
7.21720705456e-185
7.21720705456e-185
7.21720705456e-185
7.21720705467e-185
7.21720706106e-185
7.2172074393e-185
7.2172297304e-185
7.21850745333e-185
7.27697080406e-185
5.68164800733e-72
6.43570212446e-20
4.03141291997e-06
2.09754596779e-05
1.37805305594e-05
1.05574184603e-05
9.44525905208e-06
9.14313113904e-06
9.02649580691e-06
8.94594446888e-06
8.87900483459e-06
8.81421331106e-06
8.75023736609e-06
8.68663550353e-06
8.62365196814e-06
8.56073392996e-06
8.49764157544e-06
8.43468467211e-06
8.37139172223e-06
8.30762261231e-06
8.24317354927e-06
8.17817273956e-06
8.11250381027e-06
8.04593553484e-06
7.97880552899e-06
7.91101591585e-06
7.84597731232e-06
7.77715613125e-06
7.70787358053e-06
7.63841648395e-06
7.56938382552e-06
7.50069524808e-06
7.43291168953e-06
7.36641083106e-06
7.30157076437e-06
7.24192227789e-06
7.18142080393e-06
7.1238488941e-06
7.06942166935e-06
7.01854859325e-06
6.97189785137e-06
6.92955380383e-06
6.89191423251e-06
6.85914284371e-06
6.83143548693e-06
6.80901199717e-06
6.79195731732e-06
6.7803421717e-06
6.77314541814e-06
7.21720705418e-185
7.21720705419e-185
7.21720705419e-185
7.21720705419e-185
7.21720705419e-185
7.21720705419e-185
7.2172070542e-185
7.2172070542e-185
7.2172070542e-185
7.2172070542e-185
7.21720705421e-185
7.21720705421e-185
7.21720705421e-185
7.21720705421e-185
7.21720705422e-185
7.21720705453e-185
7.21720707283e-185
7.21720814474e-185
7.21726897173e-185
7.22073606378e-185
7.31046257056e-185
3.14797334071e-71
1.04499282941e-16
1.27398157696e-05
1.92489772373e-05
1.30912931294e-05
1.05129135179e-05
9.70014297243e-06
9.46607432204e-06
9.35043175098e-06
9.26154352975e-06
9.18056443404e-06
9.10160099338e-06
9.02436269896e-06
8.94809006176e-06
8.87296081398e-06
8.79853776161e-06
8.72448972199e-06
8.65050457617e-06
8.57691164855e-06
8.50308459931e-06
8.42902381657e-06
8.35825005997e-06
8.28369900318e-06
8.20854534513e-06
8.1329905435e-06
8.05723224245e-06
7.98124755861e-06
7.9049155996e-06
7.82879348169e-06
7.75299985231e-06
7.68103226499e-06
7.60664446998e-06
7.53349162823e-06
7.46175855378e-06
7.39191902735e-06
7.32464049813e-06
7.26001580003e-06
7.19861598848e-06
7.14445892634e-06
7.09072973429e-06
7.04129751943e-06
6.99647864351e-06
6.95652847797e-06
6.92200439455e-06
6.89286707479e-06
6.8692509625e-06
6.85132765375e-06
6.83911041342e-06
6.83164275605e-06
7.2172070539e-185
7.2172070539e-185
7.2172070539e-185
7.2172070539e-185
7.21720705391e-185
7.21720705391e-185
7.21720705391e-185
7.21720705391e-185
7.21720705391e-185
7.21720705392e-185
7.21720705392e-185
7.21720705392e-185
7.21720705392e-185
7.21720705392e-185
7.21720705394e-185
7.21720705471e-185
7.2172070997e-185
7.21720973614e-185
7.21735871126e-185
7.22593275893e-185
7.38546371503e-185
3.84234142154e-48
3.89434702759e-11
2.66883018941e-05
1.77475571073e-05
1.25880322284e-05
1.05901009886e-05
1.00046790837e-05
9.82229469275e-06
9.70834655986e-06
9.60559509675e-06
9.50931442061e-06
9.41533791444e-06
9.32352656528e-06
9.2336441415e-06
9.14512696249e-06
9.05769739943e-06
8.97504808981e-06
8.88954970557e-06
8.80435183772e-06
8.71975476165e-06
8.63523873296e-06
8.55084954576e-06
8.46667836328e-06
8.38242412738e-06
8.29788590857e-06
8.2172082377e-06
8.13302287207e-06
8.04916388189e-06
7.96559733716e-06
7.88263245608e-06
7.80079011995e-06
7.72021320176e-06
7.64100383298e-06
7.56755360875e-06
7.49284973246e-06
7.42084635458e-06
7.3518332251e-06
7.28667116616e-06
7.22544527027e-06
7.16853029527e-06
7.11618755861e-06
7.07252514375e-06
7.03045530143e-06
6.99386852757e-06
6.96310406704e-06
6.93826453196e-06
6.9193287175e-06
6.9063535799e-06
6.89847669879e-06
7.21720705366e-185
7.21720705366e-185
7.21720705366e-185
7.21720705367e-185
7.21720705367e-185
7.21720705367e-185
7.21720705367e-185
7.21720705367e-185
7.21720705368e-185
7.21720705368e-185
7.21720705368e-185
7.21720705368e-185
7.21720705368e-185
7.21720705368e-185
7.21720705372e-185
7.2172070558e-185
7.21720717649e-185
7.21721418044e-185
7.21760333733e-185
7.23947755435e-185
7.55332163519e-185
1.61813356808e-35
1.35362171048e-07
2.59116450776e-05
1.64718812492e-05
1.22918453168e-05
1.07724791476e-05
1.03648820858e-05
1.02088003387e-05
1.00896933787e-05
9.97291463482e-06
9.86124457231e-06
9.75206308211e-06
9.64529822093e-06
9.54405613269e-06
9.4412689519e-06
9.34034793083e-06
9.2405910791e-06
9.14239520678e-06
9.04503922269e-06
8.94875283486e-06
8.85327635511e-06
8.76186166511e-06
8.66716443858e-06
8.57291889429e-06
8.47926629781e-06
8.38592619885e-06
8.29305372469e-06
8.20098025983e-06
8.11330796167e-06
8.023177405e-06
7.93442195513e-06
7.84706409205e-06
7.76198518551e-06
7.67930993695e-06
7.59920989107e-06
7.52605159386e-06
7.45252394057e-06
7.3832684253e-06
7.31834961957e-06
7.25803350663e-06
7.20264390273e-06
7.15272767798e-06
7.10849604834e-06
7.07011359042e-06
7.04134671998e-06
7.01499672776e-06
6.99493245647e-06
6.98125054733e-06
6.97303123203e-06
7.21720705346e-185
7.21720705346e-185
7.21720705346e-185
7.21720705346e-185
7.21720705347e-185
7.21720705347e-185
7.21720705347e-185
7.21720705347e-185
7.21720705347e-185
7.21720705347e-185
7.21720705348e-185
7.21720705348e-185
7.21720705348e-185
7.21720705348e-185
7.21720705357e-185
7.21720705848e-185
7.21720733874e-185
7.21722329297e-185
7.21809391291e-185
7.26539124885e-185
7.832768738e-185
1.22558360677e-22
1.57149679968e-06
2.29699435438e-05
1.54894454539e-05
1.21599090431e-05
1.10714143142e-05
1.07810809579e-05
1.06352058136e-05
1.05026175572e-05
1.03671993788e-05
1.02375544923e-05
1.01148537333e-05
9.99113708902e-06
9.87058957165e-06
9.75240633806e-06
9.63682736053e-06
9.52314929524e-06
9.4151178189e-06
9.30478573933e-06
9.19585117515e-06
9.08825089106e-06
8.98188872289e-06
8.87627936635e-06
8.77172829239e-06
8.67170946663e-06
8.56891386816e-06
8.46722800791e-06
8.36642043867e-06
8.26709598065e-06
8.16940241754e-06
8.07695073291e-06
7.98299456112e-06
7.89161713419e-06
7.80286026927e-06
7.71731333747e-06
7.63547917423e-06
7.56115165208e-06
7.48760562216e-06
7.41883329737e-06
7.35503204371e-06
7.2965129599e-06
7.24392984958e-06
7.19726025739e-06
7.15689927764e-06
7.12284154508e-06
7.09522652658e-06
7.07792307004e-06
7.06339583215e-06
7.05472391537e-06
7.21720705328e-185
7.21720705329e-185
7.21720705329e-185
7.21720705329e-185
7.21720705329e-185
7.21720705329e-185
7.21720705329e-185
7.2172070533e-185
7.2172070533e-185
7.2172070533e-185
7.2172070533e-185
7.2172070533e-185
7.2172070533e-185
7.21720705331e-185
7.21720705356e-185
7.21720706779e-185
7.21720789423e-185
7.21725457556e-185
7.21987302919e-185
7.29968396099e-185
2.05318828185e-71
7.74601246876e-18
7.79496836737e-06
2.08659114211e-05
1.47502886216e-05
1.22173593753e-05
1.14676466269e-05
1.12533950801e-05
1.11011321301e-05
1.09449204613e-05
1.07911230179e-05
1.06411646666e-05
1.04953093822e-05
1.03535501016e-05
1.02154084765e-05
1.00847978353e-05
9.95320365731e-06
9.82442738701e-06
9.69829184178e-06
9.57407062207e-06
9.45228170344e-06
9.33584655909e-06
9.21719773563e-06
9.10010756189e-06
8.9846142849e-06
8.87031683724e-06
8.76155104222e-06
8.65040892792e-06
8.5406010923e-06
8.4329894816e-06
8.32728649351e-06
8.22369004708e-06
8.12660057835e-06
8.02865778224e-06
7.9340008422e-06
7.84292304295e-06
7.75565210897e-06
7.67305024449e-06
7.59913794728e-06
7.52625484614e-06
7.45883860804e-06
7.39736016718e-06
7.34201132092e-06
7.29289782994e-06
7.25029509276e-06
7.21433426835e-06
7.18525410912e-06
7.16305179942e-06
7.15163001819e-06
7.13855441486e-06
7.21720705313e-185
7.21720705314e-185
7.21720705314e-185
7.21720705314e-185
7.21720705314e-185
7.21720705314e-185
7.21720705314e-185
7.21720705315e-185
7.21720705315e-185
7.21720705315e-185
7.21720705315e-185
7.21720705315e-185
7.21720705315e-185
7.21720705317e-185
7.2172070539e-185
7.21720709565e-185
7.21720948994e-185
7.21734194704e-185
7.22476051005e-185
7.36862303387e-185
6.95240937698e-71
3.12474656401e-13
2.26572408185e-05
1.91761492247e-05
1.42643364718e-05
1.24124289296e-05
1.19348613467e-05
1.17668908958e-05
1.15916148679e-05
1.14130526641e-05
1.12349932244e-05
1.10622878897e-05
1.08955269158e-05
1.07378370351e-05
1.05810119684e-05
1.0428713036e-05
1.0280246871e-05
1.01352646239e-05
9.99794977075e-06
9.85922051145e-06
9.72318778302e-06
9.58979175683e-06
9.46278371283e-06
9.33355384363e-06
9.20664156513e-06
9.081412484e-06
8.95844124224e-06
8.84148308334e-06
8.72265080384e-06
8.60606000549e-06
8.49225494796e-06
8.38099412785e-06
8.27705242234e-06
8.17215538043e-06
8.07123246821e-06
7.97450327617e-06
7.88225517974e-06
7.794615522e-06
7.7162288424e-06
7.63949175898e-06
7.5686238386e-06
7.50400261026e-06
7.44570738183e-06
7.3939935839e-06
7.34937704194e-06
7.31173333794e-06
7.28121204087e-06
7.25788774627e-06
7.24580578856e-06
7.23619954529e-06
7.217207053e-185
7.217207053e-185
7.21720705301e-185
7.21720705301e-185
7.21720705301e-185
7.21720705301e-185
7.21720705301e-185
7.21720705301e-185
7.21720705301e-185
7.21720705302e-185
7.21720705302e-185
7.21720705302e-185
7.21720705302e-185
7.21720705306e-185
7.21720705542e-185
7.21720719057e-185
7.21721492022e-185
7.21763879596e-185
7.24105276826e-185
7.57345069223e-185
1.75859961693e-35
1.28052872072e-07
2.68038910434e-05
1.77752774985e-05
1.39922670255e-05
1.275626257e-05
1.2459324309e-05
1.22964261422e-05
1.21016156426e-05
1.18981697422e-05
1.16963339345e-05
1.15048209637e-05
1.13162629249e-05
1.11335769272e-05
1.09568816636e-05
1.07896343975e-05
1.06235070281e-05
1.04615356128e-05
1.03041334124e-05
1.01542406063e-05
1.0003879945e-05
9.85648179829e-06
9.71235831032e-06
9.5746776112e-06
9.43594366706e-06
9.2995540259e-06
9.16590615666e-06
9.03498176011e-06
8.91078979325e-06
8.78524054556e-06
8.66288649805e-06
8.54399753482e-06
8.42874176514e-06
8.321192594e-06
8.21404438699e-06
8.11152473134e-06
8.01382667164e-06
7.92132086382e-06
7.8385831096e-06
7.75783586537e-06
7.68343267714e-06
7.61559526999e-06
7.55453660412e-06
7.50058725148e-06
7.45376377017e-06
7.4142326187e-06
7.38621757171e-06
7.36166058124e-06
7.34461214643e-06
7.33450932964e-06
7.21720705289e-185
7.21720705289e-185
7.21720705289e-185
7.21720705289e-185
7.21720705289e-185
7.21720705289e-185
7.2172070529e-185
7.2172070529e-185
7.2172070529e-185
7.2172070529e-185
7.2172070529e-185
7.2172070529e-185
7.21720705291e-185
7.21720705303e-185
7.21720705973e-185
7.21720743374e-185
7.2172281985e-185
7.21834490162e-185
7.2761478608e-185
2.15803109249e-72
5.28443576362e-21
2.20846425143e-06
2.34010527029e-05
1.67560529143e-05
1.40035442508e-05
1.32323909779e-05
1.30450063409e-05
1.28618249731e-05
1.2633042044e-05
1.24005815679e-05
1.21768903075e-05
1.19572153778e-05
1.17453375414e-05
1.154552117e-05
1.13479469553e-05
1.11574059286e-05
1.09723775711e-05
1.07970194068e-05
1.06226359869e-05
1.04527888249e-05
1.02914896095e-05
1.0129873705e-05
9.97205451451e-06
9.81764896276e-06
9.67084069742e-06
9.52321619456e-06
9.3785163388e-06
9.23733065885e-06
9.10371315591e-06
8.96912443886e-06
8.83841589521e-06
8.71159045559e-06
8.59285079605e-06
8.47459552047e-06
8.3610814496e-06
8.25269468835e-06
8.14947727389e-06
8.05225170592e-06
7.96543636433e-06
7.88052021495e-06
7.80235091461e-06
7.73127727633e-06
7.66745661321e-06
7.61102898641e-06
7.56212039857e-06
7.52504455255e-06
7.49153452397e-06
7.4657781798e-06
7.44777482474e-06
7.43715739432e-06
7.21720705278e-185
7.21720705278e-185
7.21720705279e-185
7.21720705279e-185
7.21720705279e-185
7.21720705279e-185
7.21720705279e-185
7.21720705279e-185
7.21720705279e-185
7.2172070528e-185
7.2172070528e-185
7.2172070528e-185
7.21720705281e-185
7.21720705329e-185
7.21720708058e-185
7.21720862654e-185
7.21729343157e-185
7.22195629373e-185
7.33098585252e-185
3.98689824254e-71
3.58167998833e-16
1.27412111254e-05
2.11796943291e-05
1.61107859953e-05
1.42418767515e-05
1.38276827644e-05
1.36744290746e-05
1.34493025627e-05
1.31881872268e-05
1.29233127371e-05
1.26673656816e-05
1.24215924149e-05
1.21894442495e-05
1.19622254014e-05
1.17478703996e-05
1.15366021667e-05
1.13324862652e-05
1.11390382871e-05
1.09472851929e-05
1.07611279689e-05
1.05803604214e-05
1.04080841674e-05
1.02363837235e-05
1.00689663489e-05
9.90990552676e-06
9.75014437981e-06
9.59473249606e-06
9.44326273537e-06
9.2997492818e-06
9.15626274497e-06
9.01701537557e-06
8.8820059458e-06
8.75634962112e-06
8.63108146551e-06
8.51124714349e-06
8.39706368333e-06
8.28878449449e-06
8.19076980942e-06
8.09517453439e-06
8.00646192761e-06
7.92490343939e-06
7.85069936164e-06
7.78395394062e-06
7.72934339873e-06
7.67829343119e-06
7.6352279307e-06
7.60021075775e-06
7.57330397799e-06
7.55440933593e-06
7.54315107022e-06
7.21720705269e-185
7.21720705269e-185
7.21720705269e-185
7.21720705269e-185
7.2172070527e-185
7.2172070527e-185
7.2172070527e-185
7.2172070527e-185
7.2172070527e-185
7.2172070527e-185
7.2172070527e-185
7.21720705271e-185
7.21720705274e-185
7.21720705462e-185
7.21720716036e-185
7.21721308576e-185
7.21753306253e-185
7.23498049831e-185
7.50608792706e-185
1.54501111621e-46
2.14452508551e-08
2.93581677186e-05
1.94942521494e-05
1.58017281441e-05
1.46937020995e-05
1.44948246361e-05
1.43198955759e-05
1.40488261012e-05
1.37493836163e-05
1.34525979634e-05
1.31714964628e-05
1.28986148539e-05
1.26368419726e-05
1.23898172953e-05
1.21487555127e-05
1.19206072369e-05
1.16968726313e-05
1.14805270498e-05
1.12755751314e-05
1.10724284446e-05
1.08758427295e-05
1.06891296464e-05
1.05029711789e-05
1.03223408885e-05
1.01506590621e-05
9.97943482145e-06
9.81280544068e-06
9.65059651234e-06
9.49759178384e-06
9.34505348815e-06
9.19733818281e-06
9.05445572829e-06
8.92163181082e-06
8.78975619645e-06
8.66338739433e-06
8.54354810003e-06
8.43445955684e-06
8.3275837759e-06
8.2277109573e-06
8.13511583225e-06
8.05004735174e-06
7.97270183778e-06
7.90753301973e-06
7.84613900327e-06
7.79299513258e-06
7.74816428527e-06
7.71169030234e-06
7.68352239632e-06
7.66367317072e-06
7.65182148464e-06
7.21720705261e-185
7.21720705261e-185
7.21720705261e-185
7.21720705261e-185
7.21720705261e-185
7.21720705261e-185
7.21720705262e-185
7.21720705262e-185
7.21720705262e-185
7.21720705262e-185
7.21720705262e-185
7.21720705262e-185
7.21720705275e-185
7.21720705974e-185
7.21720744478e-185
7.21722852102e-185
7.21833628049e-185
7.27546267962e-185
5.72758725337e-73
5.26852020797e-22
1.61166702048e-06
2.47688989752e-05
1.83092431092e-05
1.58660878815e-05
1.53063293775e-05
1.51973639368e-05
1.49717979653e-05
1.46500448496e-05
1.43128271406e-05
1.39888995742e-05
1.36744388604e-05
1.33783268645e-05
1.30911155357e-05
1.28202343702e-05
1.25560453824e-05
1.23023117586e-05
1.20624080202e-05
1.18269242749e-05
1.16040176383e-05
1.13843664774e-05
1.11714972535e-05
1.09697188338e-05
1.07698948939e-05
1.05754655526e-05
1.03917471413e-05
1.02087374598e-05
1.00308258097e-05
9.86323379927e-06
9.69589399127e-06
9.53414007021e-06
9.37806802415e-06
9.23221444363e-06
9.0874743245e-06
8.9488134173e-06
8.81671621e-06
8.6957157224e-06
8.57707976969e-06
8.46560494908e-06
8.36158771382e-06
8.26525454265e-06
8.18141072721e-06
8.10097646438e-06
8.0288441171e-06
7.965193179e-06
7.91000662696e-06
7.86347583471e-06
7.82548782563e-06
7.79618744687e-06
7.7753982517e-06
7.7673353582e-06
7.21720705253e-185
7.21720705253e-185
7.21720705253e-185
7.21720705254e-185
7.21720705254e-185
7.21720705254e-185
7.21720705254e-185
7.21720705254e-185
7.21720705254e-185
7.21720705254e-185
7.21720705254e-185
7.21720705256e-185
7.21720705319e-185
7.21720708847e-185
7.21720904902e-185
7.21731459645e-185
7.22300957481e-185
7.34703599505e-185
4.69724172036e-71
1.00967843326e-15
1.31863988857e-05
2.21316754287e-05
1.76980879173e-05
1.62623021938e-05
1.60693938716e-05
1.5938595985e-05
1.56326472787e-05
1.52592816294e-05
1.48828101889e-05
1.45217314982e-05
1.41814026277e-05
1.38577068209e-05
1.35438707972e-05
1.32487409165e-05
1.29613411675e-05
1.26861307149e-05
1.24258406351e-05
1.21713921892e-05
1.19303014054e-05
1.16936727653e-05
1.14648085998e-05
1.12484122821e-05
1.10342652846e-05
1.08313815757e-05
1.06305167026e-05
1.04359552973e-05
1.02474449193e-05
1.00694131963e-05
9.89289990182e-06
9.72245273522e-06
9.56285065405e-06
9.40432903362e-06
9.25277299314e-06
9.10783215981e-06
8.97458902352e-06
8.84362809071e-06
8.72009580679e-06
8.60400658563e-06
8.5008703668e-06
8.40084229351e-06
8.30909321503e-06
8.22582518652e-06
8.15116837469e-06
8.08526789656e-06
8.03298371573e-06
7.98450985134e-06
7.94500151489e-06
7.9144328632e-06
7.89261609504e-06
7.87933587192e-06
7.21720705246e-185
7.21720705247e-185
7.21720705247e-185
7.21720705247e-185
7.21720705247e-185
7.21720705247e-185
7.21720705247e-185
7.21720705247e-185
7.21720705247e-185
7.21720705247e-185
7.21720705248e-185
7.21720705253e-185
7.21720705566e-185
7.21720722865e-185
7.21721677193e-185
7.21772349547e-185
7.24460228863e-185
7.61791878494e-185
2.02130275252e-35
1.12313002814e-07
2.90191121185e-05
2.04199782879e-05
1.754798491e-05
1.69165727524e-05
1.68803389203e-05
1.66665060045e-05
1.62834536969e-05
1.58592690464e-05
1.54495304516e-05
1.50542532744e-05
1.46835314794e-05
1.43265268567e-05
1.39911934292e-05
1.36665432658e-05
1.33608961692e-05
1.30642184291e-05
1.27836529976e-05
1.25101392824e-05
1.22516420529e-05
1.19979801004e-05
1.17583895023e-05
1.15223853283e-05
1.12941864876e-05
1.10785915649e-05
1.08651550244e-05
1.06592328017e-05
1.04649439279e-05
1.02725513831e-05
1.00864105353e-05
9.91258757763e-06
9.74024710176e-06
9.57465797393e-06
9.42119136914e-06
9.26999508871e-06
9.12620989521e-06
8.99018000913e-06
8.86709810638e-06
8.74684222133e-06
8.63486851853e-06
8.53135217558e-06
8.43657419275e-06
8.35059221209e-06