/*--------------------------------*- C++ -*----------------------------------*\
| =========                 |                                                 |
| \\      /  F ield         | foam-extend: Open Source CFD                    |
|  \\    /   O peration     | Version:     4.1                                |
|   \\  /    A nd           | Web:         http://www.foam-extend.org         |
|    \\/     M anipulation  |                                                 |
\*---------------------------------------------------------------------------*/
FoamFile
{
    version     2.0;
    format      ascii;
    class       volScalarField;
    location    "0.0006";
    object      NO;
}
// * * * * * * * * * * * * * * * * * * * * * * * * * * * * * * * * * * * * * //

dimensions      [0 0 0 0 0 0 0];

internalField   nonuniform List<scalar> 
8400
(
2.19526275698e-21
2.19526275698e-21
2.19526275699e-21
2.19526275699e-21
2.195262757e-21
2.195262757e-21
2.19526275701e-21
2.19526275701e-21
2.19526275702e-21
2.19526275702e-21
2.19526275702e-21
2.19526275703e-21
2.19526275703e-21
2.19526275704e-21
2.19526275704e-21
2.19526275704e-21
2.19526275705e-21
2.19526275705e-21
2.19526275712e-21
2.19526276072e-21
2.19526297101e-21
2.19527479045e-21
2.19595163953e-21
2.21003897403e-21
1.43159337159e-08
0.0234041631442
0.000667629026281
4.71482181026e-06
1.51193231697e-06
8.4212494318e-07
6.49580146416e-07
5.87260432468e-07
5.65767439094e-07
5.56886291481e-07
5.51944841838e-07
5.47980011268e-07
5.44417358828e-07
5.4104706801e-07
5.37778580596e-07
5.34570027606e-07
5.31400187936e-07
5.28187825284e-07
5.25307707876e-07
5.2194539192e-07
5.18490240867e-07
5.14892206974e-07
5.11145096748e-07
5.07237815984e-07
5.03139927043e-07
4.98890721257e-07
4.944670333e-07
4.89872172689e-07
4.85141085594e-07
4.80257033014e-07
4.75272612975e-07
4.70586658673e-07
4.65520677346e-07
4.60452038468e-07
4.5547110707e-07
4.50604960327e-07
4.45973738332e-07
4.41569087531e-07
4.3750678786e-07
4.33793564216e-07
4.30507392026e-07
4.27695461877e-07
4.25387566847e-07
4.23620902879e-07
4.22434459508e-07
4.21226854905e-07
2.19526275557e-21
2.19526275557e-21
2.19526275558e-21
2.19526275558e-21
2.19526275558e-21
2.19526275558e-21
2.19526275558e-21
2.19526275559e-21
2.19526275559e-21
2.19526275559e-21
2.19526275559e-21
2.19526275559e-21
2.19526275559e-21
2.1952627556e-21
2.1952627556e-21
2.1952627556e-21
2.1952627556e-21
2.19526275561e-21
2.19526275593e-21
2.19526277468e-21
2.19526386605e-21
2.19532457916e-21
2.19875074716e-21
2.2441839653e-21
0.00124549197129
0.00280131122345
1.92001322077e-05
2.65137319587e-06
1.09367106578e-06
7.03222213975e-07
5.88395018773e-07
5.52221727449e-07
5.40666831419e-07
5.3618337351e-07
5.33564998369e-07
5.31191943077e-07
5.28796002039e-07
5.26297612874e-07
5.23682357019e-07
5.20981121239e-07
5.18136589565e-07
5.15137317531e-07
5.12004651687e-07
5.08695430236e-07
5.05210686792e-07
5.01585435847e-07
4.9775748288e-07
4.93747081054e-07
4.89541372701e-07
4.85157969714e-07
4.80626386312e-07
4.75930376922e-07
4.71117192917e-07
4.66180091677e-07
4.61167571853e-07
4.56121290852e-07
4.51097203301e-07
4.46123358342e-07
4.4124661035e-07
4.36557214261e-07
4.32082938365e-07
4.27880702851e-07
4.23993078316e-07
4.20477320001e-07
4.17404702373e-07
4.14775731708e-07
4.1262657204e-07
4.11008304942e-07
4.09912793965e-07
4.08883580602e-07
2.19526275494e-21
2.19526275494e-21
2.19526275494e-21
2.19526275494e-21
2.19526275495e-21
2.19526275495e-21
2.19526275495e-21
2.19526275495e-21
2.19526275495e-21
2.19526275495e-21
2.19526275495e-21
2.19526275495e-21
2.19526275496e-21
2.19526275496e-21
2.19526275496e-21
2.19526275496e-21
2.19526275496e-21
2.19526275499e-21
2.19526275667e-21
2.19526285575e-21
2.19526852773e-21
2.19559394849e-21
2.20502679614e-21
5.79101214179e-09
0.026139858546
0.00123295139248
6.17534171014e-06
1.68645388201e-06
8.54716895501e-07
6.2710600171e-07
5.58112464143e-07
5.36725555993e-07
5.3044022223e-07
5.27548524499e-07
5.25697022723e-07
5.23860947762e-07
5.21942635433e-07
5.19871706213e-07
5.17629536548e-07
5.15214233403e-07
5.12250305384e-07
5.09472141996e-07
5.06488488611e-07
5.03341713359e-07
4.99973821056e-07
4.96393449585e-07
4.9261011795e-07
4.88598641088e-07
4.84433266641e-07
4.80060906086e-07
4.75524011994e-07
4.70823127463e-07
4.6602804077e-07
4.61135796489e-07
4.56201426685e-07
4.51586167125e-07
4.46654423687e-07
4.41784972709e-07
4.37087350234e-07
4.32550929905e-07
4.28256016437e-07
4.2422162437e-07
4.20534262399e-07
4.17220053024e-07
4.14298156536e-07
4.11835273669e-07
4.09830904598e-07
4.08303649937e-07
4.07269276831e-07
4.06349046588e-07
2.19526275458e-21
2.19526275458e-21
2.19526275458e-21
2.19526275458e-21
2.19526275458e-21
2.19526275458e-21
2.19526275458e-21
2.19526275458e-21
2.19526275459e-21
2.19526275459e-21
2.19526275459e-21
2.19526275459e-21
2.19526275459e-21
2.19526275459e-21
2.19526275459e-21
2.19526275459e-21
2.19526275459e-21
2.19526275473e-21
2.19526276289e-21
2.19526324209e-21
2.19529020307e-21
2.19683728274e-21
2.22253723141e-21
9.24397544386e-06
0.00485596265377
7.8509117132e-05
3.44532683875e-06
1.24220622468e-06
7.38759765376e-07
5.94412958074e-07
5.49687655233e-07
5.35690790835e-07
5.31184975351e-07
5.28947239789e-07
5.26993663446e-07
5.24985636609e-07
5.2286908599e-07
5.20630713706e-07
5.18229833308e-07
5.15652964997e-07
5.12917487511e-07
5.09602187211e-07
5.06469542371e-07
5.03174909304e-07
4.99654621037e-07
4.95917331434e-07
4.91979583092e-07
4.87816063347e-07
4.83503152652e-07
4.78989635507e-07
4.74321636131e-07
4.69898544674e-07
4.64998491152e-07
4.60014433503e-07
4.55028760314e-07
4.50040411274e-07
4.4511671234e-07
4.40270002109e-07
4.35619551444e-07
4.3114212922e-07
4.26923612291e-07
4.22977148482e-07
4.19384050286e-07
4.16164627202e-07
4.13333611844e-07
4.10947264913e-07
4.09012925643e-07
4.07541111044e-07
4.06544856765e-07
4.05692463802e-07
2.19526275435e-21
2.19526275435e-21
2.19526275435e-21
2.19526275435e-21
2.19526275435e-21
2.19526275435e-21
2.19526275435e-21
2.19526275435e-21
2.19526275435e-21
2.19526275435e-21
2.19526275435e-21
2.19526275435e-21
2.19526275435e-21
2.19526275435e-21
2.19526275436e-21
2.19526275436e-21
2.19526275436e-21
2.19526275481e-21
2.19526278058e-21
2.19526428038e-21
2.19534775075e-21
2.20003097673e-21
2.25813166413e-21
0.00560973296298
0.00233842924771
1.34916570161e-05
2.35883918923e-06
1.02799384512e-06
6.86955649517e-07
5.86164877109e-07
5.54247962375e-07
5.4435329338e-07
5.40128509737e-07
5.37505677935e-07
5.35030165647e-07
5.32505630968e-07
5.29901783335e-07
5.27166806188e-07
5.24281574487e-07
5.21290735702e-07
5.18124334814e-07
5.14772218637e-07
5.11252281386e-07
5.07523953149e-07
5.03611083935e-07
4.99520650576e-07
4.95217903813e-07
4.90741932091e-07
4.86061931914e-07
4.81275730962e-07
4.76324442286e-07
4.71296405143e-07
4.66160124459e-07
4.60990865349e-07
4.5580405945e-07
4.50690792645e-07
4.4564463886e-07
4.40721835337e-07
4.35976230939e-07
4.31465010992e-07
4.2721077912e-07
4.23261505096e-07
4.19998984079e-07
4.16773687616e-07
4.13948751729e-07
4.11550820664e-07
4.09624253003e-07
4.08171722627e-07
4.07187839813e-07
4.0637159864e-07
2.19526275419e-21
2.19526275419e-21
2.19526275419e-21
2.19526275419e-21
2.19526275419e-21
2.19526275419e-21
2.19526275419e-21
2.19526275419e-21
2.19526275419e-21
2.19526275419e-21
2.19526275419e-21
2.19526275419e-21
2.19526275419e-21
2.19526275419e-21
2.19526275419e-21
2.19526275419e-21
2.19526275422e-21
2.19526275552e-21
2.1952628332e-21
2.19526732687e-21
2.19552555193e-21
2.20408565146e-21
4.07321592073e-09
0.0243183392964
0.00140195669938
7.0045511442e-06
1.8261859179e-06
9.15038302657e-07
6.67840507632e-07
5.92722563994e-07
5.68243230324e-07
5.60056825638e-07
5.55455162522e-07
5.52014394786e-07
5.48740364088e-07
5.4543644049e-07
5.42060728972e-07
5.38622937891e-07
5.35061844964e-07
5.31379031827e-07
5.27557796829e-07
5.23564627046e-07
5.19461132184e-07
5.15165121418e-07
5.10699946984e-07
5.06049352331e-07
5.01242143065e-07
4.96280729733e-07
4.91161757216e-07
4.8590229927e-07
4.80557698319e-07
4.75131880561e-07
4.69673987189e-07
4.64177433176e-07
4.5872067481e-07
4.53316366423e-07
4.48403216387e-07
4.43287637196e-07
4.38383849206e-07
4.33714003517e-07
4.29330139167e-07
4.25272585154e-07
4.21602753273e-07
4.1830706011e-07
4.15439027532e-07
4.13013670032e-07
4.11047081985e-07
4.09555455181e-07
4.08547659198e-07
4.0775065331e-07
2.19526275407e-21
2.19526275407e-21
2.19526275407e-21
2.19526275407e-21
2.19526275407e-21
2.19526275407e-21
2.19526275407e-21
2.19526275407e-21
2.19526275408e-21
2.19526275408e-21
2.19526275408e-21
2.19526275408e-21
2.19526275408e-21
2.19526275408e-21
2.19526275408e-21
2.19526275408e-21
2.19526275414e-21
2.1952627578e-21
2.19526297266e-21
2.19527513826e-21
2.1959749862e-21
2.21051899353e-21
1.49549008665e-08
0.0223779525659
0.000627722984778
4.61315463973e-06
1.5113326506e-06
8.51960839938e-07
6.67332804616e-07
6.08913054766e-07
5.89399455142e-07
5.81444845352e-07
5.76049402924e-07
5.71600815369e-07
5.67310719696e-07
5.63004421495e-07
5.58685331427e-07
5.54298925648e-07
5.49859801762e-07
5.45341525945e-07
5.40712594803e-07
5.35977519318e-07
5.31089439529e-07
5.26067394444e-07
5.20883846981e-07
5.15593857015e-07
5.10140521218e-07
5.04552966624e-07
4.9885064824e-07
4.93057512707e-07
4.87570547903e-07
4.81646288305e-07
4.75719179533e-07
4.69796610961e-07
4.63960048322e-07
4.5821871649e-07
4.52605029678e-07
4.47224046739e-07
4.42052634338e-07
4.37184272126e-07
4.32608034916e-07
4.28399532497e-07
4.24557225143e-07
4.21153720163e-07
4.18545684443e-07
4.16025642927e-07
4.13993514579e-07
4.12462389203e-07
4.11427741652e-07
4.10613860156e-07
2.19526275399e-21
2.19526275399e-21
2.19526275399e-21
2.19526275399e-21
2.19526275399e-21
2.19526275399e-21
2.19526275399e-21
2.19526275399e-21
2.19526275399e-21
2.19526275399e-21
2.19526275399e-21
2.19526275399e-21
2.19526275399e-21
2.19526275399e-21
2.19526275399e-21
2.19526275399e-21
2.19526275416e-21
2.19526276407e-21
2.19526334571e-21
2.19529612107e-21
2.19717916592e-21
2.22692346982e-21
1.55441918375e-05
0.00415084185392
5.45418563543e-05
3.41923694626e-06
1.31729856323e-06
8.22886910703e-07
6.77685402017e-07
6.31260496765e-07
6.14732705335e-07
6.0715806885e-07
6.01332189722e-07
5.9541693565e-07
5.90017073801e-07
5.84638153912e-07
5.79242188571e-07
5.7381013478e-07
5.68360564316e-07
5.62848832991e-07
5.57266028023e-07
5.51571063454e-07
5.45822456718e-07
5.39934769015e-07
5.34363423576e-07
5.28252230986e-07
5.22034147985e-07
5.15729373977e-07
5.09339305841e-07
5.02892048266e-07
4.96394910627e-07
4.89910217901e-07
4.83458515025e-07
4.77044275805e-07
4.70727090761e-07
4.64562635384e-07
4.58568947991e-07
4.53183696261e-07
4.47691593886e-07
4.42530671898e-07
4.37699964563e-07
4.3325475583e-07
4.29216705907e-07
4.25655293172e-07
4.2254433603e-07
4.19920093612e-07
4.17811462634e-07
4.16211183364e-07
4.15128006683e-07
4.14295602747e-07
2.19526275392e-21
2.19526275392e-21
2.19526275392e-21
2.19526275392e-21
2.19526275392e-21
2.19526275392e-21
2.19526275392e-21
2.19526275392e-21
2.19526275392e-21
2.19526275392e-21
2.19526275392e-21
2.19526275392e-21
2.19526275392e-21
2.19526275392e-21
2.19526275392e-21
2.19526275393e-21
2.19526275432e-21
2.19526277709e-21
2.19526410065e-21
2.19533771169e-21
2.19946594903e-21
2.25222395214e-21
0.00300114178976
0.00257137921921
1.70358280195e-05
2.71360138525e-06
1.19875607415e-06
8.1521622607e-07
7.00593820552e-07
6.61148977254e-07
6.46058555095e-07
6.37637127699e-07
6.30546282556e-07
6.23750293949e-07
6.17094829489e-07
6.1047773346e-07
6.0387705081e-07
5.97283864285e-07
5.90659581785e-07
5.84050428246e-07
5.77380769867e-07
5.70636500601e-07
5.6387390505e-07
5.57022782209e-07
5.50108129413e-07
5.4310634391e-07
5.36014953604e-07
5.28907535917e-07
5.21735965614e-07
5.14523420551e-07
5.07350523125e-07
5.00191890035e-07
4.93489591867e-07
4.8650708297e-07
4.79657534037e-07
4.72974059189e-07
4.66540542356e-07
4.603654709e-07
4.5447916736e-07
4.48987040419e-07
4.43858871784e-07
4.3916211942e-07
4.34896297287e-07
4.31484942608e-07
4.2818870303e-07
4.25419886625e-07
4.23198536772e-07
4.21512121015e-07
4.20369109381e-07
4.19511247616e-07
2.19526275387e-21
2.19526275387e-21
2.19526275387e-21
2.19526275387e-21
2.19526275387e-21
2.19526275387e-21
2.19526275387e-21
2.19526275387e-21
2.19526275387e-21
2.19526275387e-21
2.19526275387e-21
2.19526275387e-21
2.19526275387e-21
2.19526275387e-21
2.19526275387e-21
2.19526275388e-21
2.19526275467e-21
2.19526280099e-21
2.19526553106e-21
2.19542201852e-21
2.2025822413e-21
1.3876412636e-09
0.0185752960118
0.00176906989631
9.46787351305e-06
2.25192667769e-06
1.12848715744e-06
8.23497553605e-07
7.31055059948e-07
6.98156025244e-07
6.82978089555e-07
6.7317956983e-07
6.64479220461e-07
6.56091537009e-07
6.4784588592e-07
6.39764074938e-07
6.31745772777e-07
6.23760860694e-07
6.15871136145e-07
6.07988885606e-07
6.0009761926e-07
5.92200885593e-07
5.84285905436e-07
5.76338797913e-07
5.68352116503e-07
5.60352373608e-07
5.52321591369e-07
5.44682729866e-07
5.36658446965e-07
5.28629752812e-07
5.20630978032e-07
5.12742738381e-07
5.04954244694e-07
4.97316585484e-07
4.89867693364e-07
4.82658828421e-07
4.760766159e-07
4.69424897185e-07
4.63146787769e-07
4.57244001754e-07
4.51751022604e-07
4.46750272198e-07
4.42220555425e-07
4.38220375176e-07
4.34747152363e-07
4.31812909331e-07
4.29458618149e-07
4.27670935722e-07
4.2645540542e-07
4.25559774884e-07
2.19526275382e-21
2.19526275382e-21
2.19526275383e-21
2.19526275383e-21
2.19526275383e-21
2.19526275383e-21
2.19526275383e-21
2.19526275383e-21
2.19526275383e-21
2.19526275383e-21
2.19526275383e-21
2.19526275383e-21
2.19526275383e-21
2.19526275383e-21
2.19526275383e-21
2.19526275387e-21
2.19526275611e-21
2.19526288739e-21
2.1952703371e-21
2.19569496468e-21
2.20668410181e-21
7.95478890068e-09
0.0270829044074
0.00112814922197
6.38729735372e-06
1.93837561918e-06
1.08651607145e-06
8.47941513645e-07
7.71023493006e-07
7.4100295458e-07
7.25481630215e-07
7.13851562714e-07
7.03134759656e-07
6.9283989268e-07
6.82789733788e-07
6.72975684603e-07
6.63328729816e-07
6.53801618894e-07
6.44357727961e-07
6.35049973326e-07
6.2577982973e-07
6.16543852228e-07
6.07787914795e-07
5.98641039899e-07
5.89487159469e-07
5.80348748794e-07
5.71250562988e-07
5.62199105654e-07
5.53180480077e-07
5.44248403028e-07
5.3541227521e-07
5.27087178645e-07
5.18543906862e-07
5.10210692426e-07
5.02092473941e-07
4.94237435725e-07
4.86722218325e-07
4.79560174701e-07
4.72790182741e-07
4.66861682298e-07
4.6101400377e-07
4.55649700536e-07
4.50826043549e-07
4.46528825216e-07
4.42845181346e-07
4.3974353276e-07
4.37233628704e-07
4.35341221769e-07
4.34057627686e-07
4.33133639322e-07
2.19526275379e-21
2.19526275379e-21
2.19526275379e-21
2.19526275379e-21
2.19526275379e-21
2.19526275379e-21
2.19526275379e-21
2.19526275379e-21
2.19526275379e-21
2.19526275379e-21
2.19526275379e-21
2.19526275379e-21
2.19526275379e-21
2.19526275379e-21
2.19526275379e-21
2.19526275389e-21
2.1952627594e-21
2.19526308229e-21
2.19528132783e-21
2.19633142316e-21
2.21586976936e-21
3.74808632035e-07
0.01053368982
0.00042714456157
4.67428953964e-06
1.7192220449e-06
1.0703034668e-06
8.81662227302e-07
8.17736495757e-07
7.90300816127e-07
7.73377109128e-07
7.59564872213e-07
7.46599293955e-07
7.34118055536e-07
7.22020896599e-07
7.10212946538e-07
6.98645452549e-07
6.87806604368e-07
6.76680877688e-07
6.65696133131e-07
6.54877807208e-07
6.44154930303e-07
6.33532700435e-07
6.23021382301e-07
6.1258065608e-07
6.02183971135e-07
5.92359966572e-07
5.82177356433e-07
5.72115368974e-07
5.6216439444e-07
5.52359380688e-07
5.42760034844e-07
5.33381233241e-07
5.24239532164e-07
5.15834198248e-07
5.07331247014e-07
4.99193786522e-07
4.91448282524e-07
4.84193838461e-07
4.7741326394e-07
4.71142602072e-07
4.65415984617e-07
4.6065789812e-07
4.56101962561e-07
4.52149836952e-07
4.48846122144e-07
4.46193680541e-07
4.44174520462e-07
4.42793193932e-07
4.41814367522e-07
2.19526275376e-21
2.19526275376e-21
2.19526275376e-21
2.19526275376e-21
2.19526275376e-21
2.19526275376e-21
2.19526275376e-21
2.19526275376e-21
2.19526275376e-21
2.19526275376e-21
2.19526275376e-21
2.19526275376e-21
2.19526275376e-21
2.19526275376e-21
2.19526275377e-21
2.19526275402e-21
2.1952627688e-21
2.1952636266e-21
2.19531128809e-21
2.19799030435e-21
2.23642794965e-21
0.000224794033837
0.00341299575367
3.90668204352e-05
3.615440195e-06
1.57637459414e-06
1.0750199406e-06
9.25984739138e-07
8.71168726051e-07
8.4498250517e-07
8.26334017743e-07
8.10135140653e-07
7.94735942242e-07
7.79872275529e-07
7.65930581731e-07
7.51900154097e-07
7.38253741327e-07
7.24883938799e-07
7.11841323695e-07
6.99022440686e-07
6.86454392532e-07
6.74096574104e-07
6.62376987649e-07
6.50327365381e-07
6.38439283104e-07
6.26724834528e-07
6.15146187832e-07
6.03721521504e-07
5.92486878556e-07
5.81888780954e-07
5.71071068386e-07
5.60506288997e-07
5.50199345499e-07
5.40240899302e-07
5.30637263582e-07
5.21400383781e-07
5.13038793888e-07
5.0467928341e-07
4.96870629777e-07
4.89598818969e-07
4.82875139111e-07
4.76739628469e-07
4.7124079081e-07
4.66391695773e-07
4.62204729106e-07
4.5909408844e-07
4.56238288214e-07
4.54073658396e-07
4.52612266721e-07
4.51601252851e-07
2.19526275374e-21
2.19526275374e-21
2.19526275374e-21
2.19526275374e-21
2.19526275374e-21
2.19526275374e-21
2.19526275374e-21
2.19526275374e-21
2.19526275374e-21
2.19526275374e-21
2.19526275374e-21
2.19526275374e-21
2.19526275374e-21
2.19526275374e-21
2.19526275375e-21
2.19526275435e-21
2.19526278868e-21
2.19526474265e-21
2.19537137069e-21
2.20116405035e-21
2.27065286985e-21
0.00985470074042
0.00223154069196
1.46510389567e-05
2.94559908857e-06
1.4846177849e-06
1.10199288808e-06
9.81506738366e-07
9.33161408931e-07
9.06590068589e-07
8.85227692575e-07
8.66072226556e-07
8.48336403495e-07
8.30652908784e-07
8.13622073419e-07
7.97093258547e-07
7.81086651351e-07
7.65489788933e-07
7.50818720708e-07
7.3596276162e-07
7.2143329885e-07
7.07212573522e-07
6.93283204222e-07
6.79576353964e-07
6.66126074788e-07
6.53388681908e-07
6.40396720312e-07
6.2766253163e-07
6.15149117612e-07
6.0292781254e-07
5.91011060912e-07
5.7984623781e-07
5.68581515289e-07
5.57721699651e-07
5.47258970451e-07
5.37253742613e-07
5.27753394056e-07
5.19197561631e-07
5.10789508866e-07
5.02988418754e-07
4.95790444612e-07
4.8922262561e-07
4.83363078289e-07
4.78174845414e-07
4.7372976351e-07
4.69990014017e-07
4.66966447895e-07
4.65097198389e-07
4.63519850401e-07
4.62450445053e-07
2.19526275371e-21
2.19526275371e-21
2.19526275372e-21
2.19526275372e-21
2.19526275372e-21
2.19526275372e-21
2.19526275372e-21
2.19526275372e-21
2.19526275372e-21
2.19526275372e-21
2.19526275372e-21
2.19526275372e-21
2.19526275372e-21
2.19526275372e-21
2.19526275375e-21
2.19526275549e-21
2.19526285671e-21
2.19526857394e-21
2.19558926564e-21
2.20536400564e-21
5.12835138886e-09
0.0252320029344
0.00143636486302
8.49381627464e-06
2.49809522077e-06
1.44195618501e-06
1.14803006687e-06
1.04919210901e-06
1.00435488007e-06
9.75274406641e-07
9.509094956e-07
9.28222825805e-07
9.06543653883e-07
8.85723338201e-07
8.65664395899e-07
8.46921584854e-07
8.28214343826e-07
8.10099892303e-07
7.92534740685e-07
7.75417666302e-07
7.58801504541e-07
7.43081493354e-07
7.27202543721e-07
7.11686480518e-07
6.96526569409e-07
6.81657312856e-07
6.67653767871e-07
6.53463316301e-07
6.39585001216e-07
6.26112033586e-07
6.12998354809e-07
6.00257022488e-07
5.88435891852e-07
5.76601793754e-07
5.65265993397e-07
5.54449392982e-07
5.44167519702e-07
5.34509290187e-07
5.25956274757e-07
5.17564819986e-07
5.09851964576e-07
5.02860914969e-07
4.96612428029e-07
4.91084036946e-07
4.86334143337e-07
4.82334159219e-07
4.79116812954e-07
4.76668490589e-07
4.75429786577e-07
4.73856111845e-07
2.1952627537e-21
2.1952627537e-21
2.1952627537e-21
2.1952627537e-21
2.1952627537e-21
2.1952627537e-21
2.1952627537e-21
2.1952627537e-21
2.1952627537e-21
2.1952627537e-21
2.1952627537e-21
2.1952627537e-21
2.1952627537e-21
2.1952627537e-21
2.19526275379e-21
2.1952627589e-21
2.19526305214e-21
2.19527927465e-21
2.1961878535e-21
2.21380722886e-21
1.85062822859e-08
0.0182079757309
0.000669493108399
5.78665091223e-06
2.20358850781e-06
1.43224005646e-06
1.20941824681e-06
1.1276169531e-06
1.08299765725e-06
1.05100711696e-06
1.02239478132e-06
9.95524700125e-07
9.70000312136e-07
9.46178739909e-07
9.22735993523e-07
9.00264358581e-07
8.78593320609e-07
8.57641666296e-07
8.38071348714e-07
8.18472615963e-07
7.99455642002e-07
7.80995767747e-07
7.63629920112e-07
7.46123085585e-07
7.29106386258e-07
7.12478401341e-07
6.96310156224e-07
6.8110791506e-07
6.65798288444e-07
6.50923282076e-07
6.36543373244e-07
6.22612467982e-07
6.09732673218e-07
5.96839790458e-07
5.84552452078e-07
5.72880647114e-07
5.61845414004e-07
5.51443701422e-07
5.42226891766e-07
5.33254713805e-07
5.25023871246e-07
5.17580060606e-07
5.10902893784e-07
5.05007042202e-07
4.99961084731e-07
4.95715860896e-07
4.92288837442e-07
4.89689363231e-07
4.88368585351e-07
4.8718776184e-07
2.19526275368e-21
2.19526275368e-21
2.19526275368e-21
2.19526275368e-21
2.19526275368e-21
2.19526275368e-21
2.19526275368e-21
2.19526275368e-21
2.19526275368e-21
2.19526275368e-21
2.19526275368e-21
2.19526275368e-21
2.19526275368e-21
2.19526275369e-21
2.19526275398e-21
2.19526277053e-21
2.19526371721e-21
2.19531563084e-21
2.19818322662e-21
2.23889322972e-21
0.000246165954225
0.00345318336346
4.91999182232e-05
4.29065808272e-06
2.00969648995e-06
1.45649819312e-06
1.28513008006e-06
1.21345232903e-06
1.16887624307e-06
1.13292736159e-06
1.09974983972e-06
1.06903192173e-06
1.03926186042e-06
1.01078808735e-06
9.83607286886e-07
9.58217000207e-07
9.33283408858e-07
9.09252431531e-07
8.86188609511e-07
8.64478618973e-07
8.42929202203e-07
8.22049858121e-07
8.01845011894e-07
7.8277102675e-07
7.63756164219e-07
7.45256253907e-07
7.27312740413e-07
7.09929563389e-07
6.93625230625e-07
6.77288997409e-07
6.61531084932e-07
6.4637249928e-07
6.31829479753e-07
6.18399535284e-07
6.05126393064e-07
5.92544774855e-07
5.80660805679e-07
5.69500294244e-07
5.59613072038e-07
5.50021792533e-07
5.41262396381e-07
5.33326419806e-07
5.26220717868e-07
5.19991946116e-07
5.14609363006e-07
5.10092522407e-07
5.06915285826e-07
5.04136916777e-07
5.02231054147e-07
5.00994587881e-07
2.19526275367e-21
2.19526275367e-21
2.19526275367e-21
2.19526275367e-21
2.19526275367e-21
2.19526275367e-21
2.19526275367e-21
2.19526275367e-21
2.19526275367e-21
2.19526275367e-21
2.19526275367e-21
2.19526275367e-21
2.19526275367e-21
2.19526275368e-21
2.1952627545e-21
2.19526280031e-21
2.19526534345e-21
2.19540211021e-21
2.2024814524e-21
5.26257301337e-10
0.0147908677045
0.00208612233058
1.48355333806e-05
3.42035083657e-06
1.91179584727e-06
1.51101789674e-06
1.37735276742e-06
1.31080181021e-06
1.26273731286e-06
1.22149421668e-06
1.18367628752e-06
1.14729466322e-06
1.11273430868e-06
1.08063672545e-06
1.04931121902e-06
1.01948693895e-06
9.90927847478e-07
9.64195956984e-07
9.37949692283e-07
9.1266801282e-07
8.88997898133e-07
8.65508981259e-07
8.42865019601e-07
8.20951510407e-07
8.00369003926e-07
7.79903725914e-07
7.60057114508e-07
7.40903154517e-07
7.22999558119e-07
7.0513297909e-07
6.87964218456e-07
6.71489172073e-07
6.56236338702e-07
6.41182563511e-07
6.26872895402e-07
6.13336255848e-07
6.00563622177e-07
5.8863567034e-07
5.78095051376e-07
5.6784795022e-07
5.5849025982e-07
5.50037900935e-07
5.42509371633e-07
5.35890567872e-07
5.30178233366e-07
5.25892799025e-07
5.22027794344e-07
5.19073596538e-07
5.17025523253e-07
5.15729722994e-07
2.19526275365e-21
2.19526275365e-21
2.19526275365e-21
2.19526275365e-21
2.19526275365e-21
2.19526275365e-21
2.19526275365e-21
2.19526275365e-21
2.19526275365e-21
2.19526275365e-21
2.19526275365e-21
2.19526275366e-21
2.19526275366e-21
2.19526275372e-21
2.19526275706e-21
2.1952629464e-21
2.19527333278e-21
2.19584441076e-21
2.20919766406e-21
1.02560735251e-08
0.0271331009213
0.00115500976191
8.22329589162e-06
2.89946977871e-06
1.88115319605e-06
1.59490383061e-06
1.48461379716e-06
1.41805987682e-06
1.3655154077e-06
1.31770326892e-06
1.27304939511e-06
1.23097292513e-06
1.19188711656e-06
1.15415824144e-06
1.11913073462e-06
1.08507621922e-06
1.05261425624e-06
1.02228241437e-06
9.92612673487e-07
9.64162438828e-07
9.36907178637e-07
9.11270738843e-07
8.86022917131e-07
8.61692347553e-07
8.38877148028e-07
8.16199007136e-07
7.94421379269e-07
7.73417139693e-07
7.53778655815e-07
7.34341651809e-07
7.15679987076e-07
6.97796537092e-07
6.81345201259e-07
6.65092570047e-07
6.49704071997e-07
6.3518568762e-07
6.21549405925e-07
6.09333041689e-07
5.97506575792e-07
5.8662519886e-07
5.76707922427e-07
5.67748934228e-07
5.5973525814e-07
5.53237881267e-07
5.47189420591e-07
5.42115205932e-07
5.38014331641e-07
5.3489322479e-07
5.32720215282e-07
5.31335906406e-07
2.19526275364e-21
2.19526275364e-21
2.19526275364e-21
2.19526275364e-21
2.19526275364e-21
2.19526275364e-21
2.19526275364e-21
2.19526275364e-21
2.19526275364e-21
2.19526275364e-21
2.19526275364e-21
2.19526275364e-21
2.19526275365e-21
2.19526275388e-21
2.19526276683e-21
2.19526349253e-21
2.19530268127e-21
2.19743953326e-21
2.23064306273e-21
1.56675991555e-05
0.00447385226881
0.000187794756708
5.54412074713e-06
2.58920235606e-06
1.90936816562e-06
1.70100364074e-06
1.60317481797e-06
1.53403768671e-06
1.47461722436e-06
1.41957866234e-06
1.36890261142e-06
1.32058061322e-06
1.27499145657e-06
1.2327101187e-06
1.19202608904e-06
1.1541166195e-06
1.11748119367e-06
1.08256477305e-06
1.04998214531e-06
1.01808041404e-06
9.87649639463e-07
9.59145996568e-07
9.31055252136e-07
9.04186580309e-07
8.78964529597e-07
8.541180253e-07
8.30229565554e-07
8.07258124702e-07
7.85858101191e-07
7.64768028271e-07
7.44566763853e-07
7.2525463987e-07
7.07526259708e-07
6.90083825376e-07
6.73546144245e-07
6.58030376001e-07
6.44059222572e-07
6.30480951153e-07
6.179105903e-07
6.06357282622e-07
5.95826513607e-07
5.86317925531e-07
5.7839562399e-07
5.709517405e-07
5.64554195759e-07
5.59193132562e-07
5.54862986106e-07
5.5153650038e-07
5.49219022241e-07
5.47763465422e-07
2.19526275363e-21
2.19526275363e-21
2.19526275363e-21
2.19526275363e-21
2.19526275363e-21
2.19526275363e-21
2.19526275363e-21
2.19526275363e-21
2.19526275363e-21
2.19526275363e-21
2.19526275363e-21
2.19526275363e-21
2.19526275365e-21
2.19526275451e-21
2.19526280166e-21
2.19526538295e-21
2.19540105435e-21
2.20239753573e-21
1.39550905287e-10
0.0127020416426
0.00224740344086
1.96771849596e-05
4.19553818065e-06
2.44039779089e-06
1.98301029541e-06
1.82444392936e-06
1.73210029238e-06
1.65714921373e-06
1.58966093698e-06
1.52775740689e-06
1.46897757674e-06
1.41474905103e-06
1.36303381621e-06
1.31511220639e-06
1.26911676616e-06
1.22565217832e-06
1.18522126654e-06
1.14609494523e-06
1.10964139304e-06
1.07420311801e-06
1.0403616112e-06
1.00876448031e-06
9.77857053116e-07
9.48192286193e-07
9.20575869548e-07
8.93375498701e-07
8.67290347685e-07
8.4304641373e-07
8.19114782018e-07
7.9627432251e-07
7.74493215922e-07
7.54395932537e-07
7.34666875607e-07
7.1597075524e-07
6.98349306014e-07
6.82407157627e-07
6.66909534798e-07
6.52490549105e-07
6.39161907483e-07
6.26922541028e-07
6.1637985547e-07
6.06320773479e-07
5.97369499325e-07
5.89536785814e-07
5.82777840124e-07
5.77126617745e-07
5.72529606701e-07
5.69027111458e-07
5.66564334504e-07
5.65563577245e-07
2.19526275362e-21
2.19526275362e-21
2.19526275362e-21
2.19526275362e-21
2.19526275362e-21
2.19526275362e-21
2.19526275362e-21
2.19526275362e-21
2.19526275362e-21
2.19526275362e-21
2.19526275362e-21
2.19526275363e-21
2.1952627537e-21
2.19526275802e-21
2.19526299814e-21
2.19527592492e-21
2.19597340999e-21
2.21116338437e-21
1.22523838184e-08
0.0267041999795
0.00114758404963
9.21642800083e-06
3.49797902784e-06
2.40929313914e-06
2.10270505188e-06
1.96861361502e-06
1.8723699628e-06
1.78879727837e-06
1.71181331969e-06
1.64037090713e-06
1.57455955801e-06
1.51316233816e-06
1.45475229324e-06
1.4008180964e-06
1.34916186358e-06
1.30052935987e-06
1.255346767e-06
1.21185518698e-06
1.1713009491e-06
1.13209364385e-06
1.09474440611e-06
1.05997315854e-06
1.02601785004e-06
9.94323774607e-07
9.63346242897e-07
9.33768120427e-07
9.05482561198e-07
8.79151428938e-07
8.53360583952e-07
8.2875266879e-07
8.06049207732e-07
7.83724036463e-07
7.6265889507e-07
7.42729388459e-07
7.24635682267e-07
7.07031153111e-07
6.90593392731e-07
6.75289775631e-07
6.61847501014e-07
6.48907295363e-07
6.37144973662e-07
6.2655434824e-07
6.17124764092e-07
6.08864657292e-07
6.02378255507e-07
5.96380760312e-07
5.915309887e-07
5.87816825949e-07
5.85193030865e-07
5.83539575952e-07
2.19526275361e-21
2.19526275361e-21
2.19526275361e-21
2.19526275361e-21
2.19526275361e-21
2.19526275361e-21
2.19526275361e-21
2.19526275362e-21
2.19526275362e-21
2.19526275362e-21
2.19526275362e-21
2.19526275362e-21
2.19526275401e-21
2.19526277519e-21
2.19526394399e-21
2.1953260043e-21
2.19861794951e-21
2.24433940149e-21
0.00028889252094
0.00355044560689
9.71331493928e-05
5.9832056193e-06
3.13265506684e-06
2.46502594889e-06
2.24881035378e-06
2.12391428846e-06
2.02017834995e-06
1.92568524272e-06
1.83940499769e-06
1.75841306822e-06
1.68418619908e-06
1.61406338089e-06
1.54957849244e-06
1.4882502077e-06
1.43164373854e-06
1.37761954538e-06
1.3274522926e-06
1.27932759469e-06
1.23463502813e-06
1.19143017112e-06
1.15131170802e-06
1.1123627936e-06
1.07527106388e-06
1.04077317235e-06
1.00707164284e-06
9.75009902519e-07
9.45243030685e-07
9.16114985157e-07
8.88304503029e-07
8.62720621662e-07
8.37635224263e-07
8.13842400144e-07
7.92079020305e-07
7.70885230744e-07
7.50950324042e-07
7.32303361465e-07
7.15631040065e-07
6.99483173628e-07
6.84599891143e-07
6.70969874263e-07
6.58599049265e-07
6.4746218707e-07
6.38209041521e-07
6.29518705996e-07
6.22054028124e-07
6.1576205489e-07
6.10680328224e-07
6.06753953484e-07
6.03968244701e-07
6.02215002158e-07
2.19526275361e-21
2.19526275361e-21
2.19526275361e-21
2.19526275361e-21
2.19526275361e-21
2.19526275361e-21
2.19526275361e-21
2.19526275361e-21
2.19526275361e-21
2.19526275361e-21
2.19526275361e-21
2.19526275364e-21
2.19526275567e-21
2.19526286904e-21
2.19526904889e-21
2.19560064056e-21
2.20608880783e-21
4.32032725434e-09
0.0232782883239
0.00178164908075
1.55663560587e-05