/*--------------------------------*- C++ -*----------------------------------*\
| =========                 |                                                 |
| \\      /  F ield         | foam-extend: Open Source CFD                    |
|  \\    /   O peration     | Version:     4.1                                |
|   \\  /    A nd           | Web:         http://www.foam-extend.org         |
|    \\/     M anipulation  |                                                 |
\*---------------------------------------------------------------------------*/
FoamFile
{
    version     2.0;
    format      ascii;
    class       volScalarField;
    location    "0.0006";
    object      NOPlus;
}
// * * * * * * * * * * * * * * * * * * * * * * * * * * * * * * * * * * * * * //

dimensions      [0 0 0 0 0 0 0];

internalField   nonuniform List<scalar> 
8400
(
1.21417155766e-66
1.21417155766e-66
1.21417155767e-66
1.21417155767e-66
1.21417155768e-66
1.21417155768e-66
1.21417155769e-66
1.21417155769e-66
1.21417155769e-66
1.2141715577e-66
1.2141715577e-66
1.21417155771e-66
1.21417155771e-66
1.21417155771e-66
1.21417155772e-66
1.21417155772e-66
1.21417155773e-66
1.21417155773e-66
1.21417155779e-66
1.21417156113e-66
1.21417175585e-66
1.21418270046e-66
1.21480945178e-66
1.22785409608e-66
2.07154527492e-26
4.85883588665e-07
0.000453715620262
2.48709252559e-05
1.16168852073e-05
7.68940520512e-06
6.36725355444e-06
5.91252114514e-06
5.75466495645e-06
5.69199290493e-06
5.6586981226e-06
5.63265478455e-06
5.60928214814e-06
5.58717219662e-06
5.56571148366e-06
5.5445839979e-06
5.52359586249e-06
5.5022919681e-06
5.48318446072e-06
5.46073671232e-06
5.4375800119e-06
5.41344007536e-06
5.38821181437e-06
5.3617789984e-06
5.33402825026e-06
5.30509558168e-06
5.27488912028e-06
5.24342536723e-06
5.21085883547e-06
5.17717600817e-06
5.14256663517e-06
5.10999326263e-06
5.0745099545e-06
5.03895866645e-06
5.00378735319e-06
4.96937255935e-06
4.93640719011e-06
4.90502503892e-06
4.87586599301e-06
4.84919279291e-06
4.82548154756e-06
4.80511472748e-06
4.78838617968e-06
4.77556785349e-06
4.76690487974e-06
4.75735698043e-06
1.21417155636e-66
1.21417155636e-66
1.21417155636e-66
1.21417155636e-66
1.21417155637e-66
1.21417155637e-66
1.21417155637e-66
1.21417155637e-66
1.21417155637e-66
1.21417155637e-66
1.21417155638e-66
1.21417155638e-66
1.21417155638e-66
1.21417155638e-66
1.21417155638e-66
1.21417155638e-66
1.21417155639e-66
1.21417155639e-66
1.21417155669e-66
1.21417157405e-66
1.21417258464e-66
1.214228804e-66
1.21740138025e-66
1.2594718067e-66
7.91865306813e-15
0.000192249711989
5.98776949052e-05
1.7054048027e-05
9.28525828868e-06
6.77414507862e-06
5.94396994958e-06
5.67142543782e-06
5.58443688778e-06
5.55197559632e-06
5.5336911059e-06
5.51739647484e-06
5.50099913759e-06
5.48396460977e-06
5.46616600953e-06
5.4476905797e-06
5.42827845512e-06
5.40785099216e-06
5.38639515498e-06
5.36376095657e-06
5.33993263913e-06
5.3150224849e-06
5.28874993316e-06
5.26111786734e-06
5.23208687579e-06
5.20176634648e-06
5.17030029579e-06
5.13764103212e-06
5.10401188146e-06
5.0694414684e-06
5.0341699422e-06
4.99854917851e-06
4.96293863133e-06
4.9275381113e-06
4.89271470134e-06
4.85907722179e-06
4.82689947402e-06
4.79656909051e-06
4.7684402197e-06
4.74294708317e-06
4.72056261784e-06
4.70140267245e-06
4.68573221107e-06
4.67384219381e-06
4.66577932173e-06
4.65774186785e-06
1.21417155577e-66
1.21417155577e-66
1.21417155578e-66
1.21417155578e-66
1.21417155578e-66
1.21417155578e-66
1.21417155578e-66
1.21417155578e-66
1.21417155578e-66
1.21417155578e-66
1.21417155578e-66
1.21417155579e-66
1.21417155579e-66
1.21417155579e-66
1.21417155579e-66
1.21417155579e-66
1.21417155579e-66
1.21417155582e-66
1.21417155737e-66
1.21417164912e-66
1.21417690128e-66
1.21447823565e-66
1.22321290028e-66
8.48433529355e-27
3.16880808802e-08
0.000481024476098
2.96040463139e-05
1.255498941e-05
7.80367919132e-06
6.23893284236e-06
5.72523372465e-06
5.5619353508e-06
5.51446164952e-06
5.49346246493e-06
5.48037328144e-06
5.46761423734e-06
5.45427563741e-06
5.4399484763e-06
5.4245121875e-06
5.40792997847e-06
5.38754812606e-06
5.36846550097e-06
5.34800223883e-06
5.32632241924e-06
5.30316518598e-06
5.27852058397e-06
5.25238802858e-06
5.22471084867e-06
5.19580540214e-06
5.16546913078e-06
5.13385095849e-06
5.10104236124e-06
5.06742077523e-06
5.03304407262e-06
4.99818495877e-06
4.96552120742e-06
4.93041207255e-06
4.89568815754e-06
4.86200296085e-06
4.82943345808e-06
4.79845338301e-06
4.76931668969e-06
4.7425665292e-06
4.71845857911e-06
4.69719710621e-06
4.67916029661e-06
4.66445700459e-06
4.65324618465e-06
4.64564451957e-06
4.63852256952e-06
1.21417155544e-66
1.21417155544e-66
1.21417155544e-66
1.21417155544e-66
1.21417155544e-66
1.21417155544e-66
1.21417155544e-66
1.21417155544e-66
1.21417155544e-66
1.21417155545e-66
1.21417155545e-66
1.21417155545e-66
1.21417155545e-66
1.21417155545e-66
1.21417155545e-66
1.21417155545e-66
1.21417155545e-66
1.21417155558e-66
1.21417156313e-66
1.21417200687e-66
1.2141969723e-66
1.21562954309e-66
1.23942728062e-66
1.58563982999e-18
5.46829883165e-05
0.000140100270876
2.02937491505e-05
1.01602484369e-05
7.02757580653e-06
5.99603734755e-06
5.65858463855e-06
5.5523728566e-06
5.51893747491e-06
5.50284558174e-06
5.48917354406e-06
5.4752868113e-06
5.46068918778e-06
5.44524686031e-06
5.42875582809e-06
5.41112212687e-06
5.39232574215e-06
5.36961692174e-06
5.3481907963e-06
5.3255350408e-06
5.30135986732e-06
5.27567410257e-06
5.24849909754e-06
5.21979195247e-06
5.18987912871e-06
5.15857209441e-06
5.12603059757e-06
5.09516105119e-06
5.06079396356e-06
5.02575887911e-06
4.99052103331e-06
4.95519737654e-06
4.92011495022e-06
4.88553658753e-06
4.85214673938e-06
4.81997057376e-06
4.78950169777e-06
4.76096978139e-06
4.73488276246e-06
4.71144788728e-06
4.69083153808e-06
4.67335690501e-06
4.65915696162e-06
4.64834645075e-06
4.64102183574e-06
4.6344326433e-06
1.21417155522e-66
1.21417155522e-66
1.21417155522e-66
1.21417155522e-66
1.21417155523e-66
1.21417155523e-66
1.21417155523e-66
1.21417155523e-66
1.21417155523e-66
1.21417155523e-66
1.21417155523e-66
1.21417155523e-66
1.21417155523e-66
1.21417155523e-66
1.21417155523e-66
1.21417155523e-66
1.21417155524e-66
1.21417155565e-66
1.21417157951e-66
1.2141729683e-66
1.21425026052e-66
1.21858685217e-66
1.27238715062e-66
5.67442597053e-12
0.00026576212294
4.82378234372e-05
1.57635994646e-05
8.88583160274e-06
6.65578543407e-06
5.92291314718e-06
5.6829831412e-06
5.60881030195e-06
5.57862422623e-06
5.5603249859e-06
5.54335514157e-06
5.5261509556e-06
5.50835339346e-06
5.48972948502e-06
5.47014525166e-06
5.44974603296e-06
5.42819457909e-06
5.40541971391e-06
5.38137650039e-06
5.3559486731e-06
5.32920810787e-06
5.30117452152e-06
5.27168496667e-06
5.24082894971e-06
5.20857945156e-06
5.17538252708e-06
5.14104057934e-06
5.10593379784e-06
5.07004226155e-06
5.03367515641e-06
4.99712004948e-06
4.96088574479e-06
4.9250255326e-06
4.88987120705e-06
4.85586319354e-06
4.82339761056e-06
4.79270652533e-06
4.76410462867e-06
4.74047034066e-06
4.71696356617e-06
4.6963565482e-06
4.67885779368e-06
4.66473952941e-06
4.65405925642e-06
4.64681822653e-06
4.64051448859e-06
1.21417155507e-66
1.21417155508e-66
1.21417155508e-66
1.21417155508e-66
1.21417155508e-66
1.21417155508e-66
1.21417155508e-66
1.21417155508e-66
1.21417155508e-66
1.21417155508e-66
1.21417155508e-66
1.21417155508e-66
1.21417155508e-66
1.21417155508e-66
1.21417155508e-66
1.21417155508e-66
1.2141715551e-66
1.21417155631e-66
1.21417162824e-66
1.2141757893e-66
1.21441490154e-66
1.2223414155e-66
5.98305177468e-27
1.43740862942e-08
0.00045743663766
3.20418265681e-05
1.32339506316e-05
8.1652454206e-06
6.50258938822e-06
5.95367714447e-06
5.77176704127e-06
5.71201217753e-06
5.68021432176e-06
5.65698971821e-06
5.63493803623e-06
5.61275823165e-06
5.59012887419e-06
5.56698725861e-06
5.54306868907e-06
5.51828829074e-06
5.49252808671e-06
5.46564792936e-06
5.43785656184e-06
5.40879108702e-06
5.37846372798e-06
5.34682607876e-06
5.31401823819e-06
5.28005497572e-06
5.24489096986e-06
5.20864444324e-06
5.17165267083e-06
5.13399829026e-06
5.09590425917e-06
5.05746711395e-06
5.01902962403e-06
4.98087835758e-06
4.94601703126e-06
4.90959255419e-06
4.87450756291e-06
4.84097542996e-06
4.80936099056e-06
4.78003480001e-06
4.75338732815e-06
4.72943884187e-06
4.70851559945e-06
4.69078540526e-06
4.67640448581e-06
4.66549456378e-06
4.6581209421e-06
4.65196343828e-06
1.21417155497e-66
1.21417155497e-66
1.21417155497e-66
1.21417155497e-66
1.21417155497e-66
1.21417155497e-66
1.21417155497e-66
1.21417155497e-66
1.21417155497e-66
1.21417155497e-66
1.21417155497e-66
1.21417155497e-66
1.21417155497e-66
1.21417155497e-66
1.21417155497e-66
1.21417155498e-66
1.21417155503e-66
1.21417155842e-66
1.21417175738e-66
1.21418302252e-66
1.21483107042e-66
1.22829858639e-66
2.16148550986e-26
6.05271543181e-07
0.000443366398284
2.45166430356e-05
1.16016579826e-05
7.74009352545e-06
6.47483765553e-06
6.04986053495e-06
5.90743440935e-06
5.85159476554e-06
5.8153246636e-06
5.78590638537e-06
5.7575772685e-06
5.72921610035e-06
5.70064546728e-06
5.67163974832e-06
5.64220898557e-06
5.61219688337e-06
5.58140977844e-06
5.54979415719e-06
5.51713669554e-06
5.48341974967e-06
5.44858944441e-06
5.41285415358e-06
5.37595397751e-06
5.3379617457e-06
5.29906375981e-06
5.25938863147e-06
5.22163683142e-06
5.18076271283e-06
5.13958828462e-06
5.09833226577e-06
5.05745851027e-06
5.01706218504e-06
4.97743389604e-06
4.93920054774e-06
4.90238409519e-06
4.86748708546e-06
4.83464418108e-06
4.80424262612e-06
4.77647266309e-06
4.75172241366e-06
4.73272423531e-06
4.71434184767e-06
4.69949429297e-06
4.6882721419e-06
4.68068757058e-06
4.67444040523e-06
1.21417155489e-66
1.21417155489e-66
1.21417155489e-66
1.21417155489e-66
1.21417155489e-66
1.21417155489e-66
1.21417155489e-66
1.21417155489e-66
1.21417155489e-66
1.21417155489e-66
1.21417155489e-66
1.21417155489e-66
1.21417155489e-66
1.21417155489e-66
1.21417155489e-66
1.2141715549e-66
1.21417155505e-66
1.21417156423e-66
1.21417210281e-66
1.21420245227e-66
1.2159461214e-66
1.24348886656e-66
2.64455597541e-18
8.07661825121e-05
0.000112445476334
2.01384877681e-05
1.05228773015e-05
7.52235769097e-06
6.52130184222e-06
6.18629910231e-06
6.06877184858e-06
6.01732656342e-06
5.97925246059e-06
5.94091970755e-06
5.9058971653e-06
5.87095150958e-06
5.83579858575e-06
5.80035610718e-06
5.76473055813e-06
5.72867456408e-06
5.69198985172e-06
5.6545209446e-06
5.61649334428e-06
5.57750331249e-06
5.54037102589e-06
5.49957181169e-06
5.45784600333e-06
5.41537290288e-06
5.372183776e-06
5.32832771351e-06
5.2839920996e-06
5.23951841355e-06
5.19502323299e-06
5.15062858382e-06
5.10663546485e-06
5.06350343572e-06
5.02142745823e-06
4.98334732871e-06
4.9444102983e-06
4.90760805847e-06
4.87305715804e-06
4.84110180791e-06
4.81202097937e-06
4.78622070947e-06
4.76367126352e-06
4.74459919965e-06
4.7291956582e-06
4.71750413383e-06
4.70959131835e-06
4.70322158553e-06
1.21417155483e-66
1.21417155483e-66
1.21417155483e-66
1.21417155483e-66
1.21417155483e-66
1.21417155483e-66
1.21417155483e-66
1.21417155483e-66
1.21417155483e-66
1.21417155483e-66
1.21417155483e-66
1.21417155483e-66
1.21417155483e-66
1.21417155483e-66
1.21417155483e-66
1.21417155484e-66
1.2141715552e-66
1.21417157629e-66
1.21417280188e-66
1.21424096451e-66
1.21806364564e-66
1.26691670471e-66
2.68752990357e-13
0.000226732663757
5.55700808675e-05
1.72441420618e-05
9.8210401745e-06
7.43972335482e-06
6.64805980325e-06
6.3691134592e-06
6.26558298625e-06
6.21063897351e-06
6.16548577906e-06
6.12242687191e-06
6.08012061343e-06
6.03795150842e-06
5.995792245e-06
5.95345731889e-06
5.91085192909e-06
5.86812165528e-06
5.82486942255e-06
5.78100012735e-06
5.73684186832e-06
5.69199935075e-06
5.64652829882e-06
5.6002700716e-06
5.5532615134e-06
5.50586201193e-06
5.45780520717e-06
5.40927518402e-06
5.3607216025e-06
5.31199940726e-06
5.26620153311e-06
5.21819186039e-06
5.1708316934e-06
5.12442149966e-06
5.07948533816e-06
5.03612104067e-06
4.99465407325e-06
4.955700518e-06
4.9192321315e-06
4.88564359216e-06
4.85507164582e-06
4.83048537807e-06
4.8067022669e-06
4.78667214126e-06
4.77052772635e-06
4.7582702075e-06
4.74996419656e-06
4.74345571791e-06
1.21417155478e-66
1.21417155478e-66
1.21417155478e-66
1.21417155478e-66
1.21417155478e-66
1.21417155478e-66
1.21417155478e-66
1.21417155478e-66
1.21417155478e-66
1.21417155478e-66
1.21417155478e-66
1.21417155478e-66
1.21417155478e-66
1.21417155478e-66
1.21417155478e-66
1.2141715548e-66
1.21417155552e-66
1.21417159842e-66
1.21417412642e-66
1.21431903127e-66
1.22094928197e-66
2.04693114799e-27
1.98316754996e-09
0.000385290672833
3.86382760956e-05
1.51756279948e-05
9.37385396097e-06
7.45595121806e-06
6.82089746403e-06
6.59298126682e-06
6.49336340857e-06
6.43176086948e-06
6.37783053864e-06
6.32586899131e-06
6.27461952294e-06
6.22412090757e-06
6.17385745138e-06
6.1236210829e-06
6.07367576712e-06
6.02361008921e-06
5.97331184958e-06
5.92264608386e-06
5.87166849891e-06
5.82028103757e-06
5.76832536572e-06
5.7160397248e-06
5.66333799787e-06
5.6130317191e-06
5.55983236335e-06
5.50634494766e-06
5.45278370292e-06
5.39963345959e-06
5.34682749158e-06
5.29478192474e-06
5.24376897351e-06
5.19405855328e-06
5.1484274594e-06
5.10210503843e-06
5.05810985348e-06
5.0165604484e-06
4.97775505404e-06
4.94221348765e-06
4.90995570884e-06
4.88130900634e-06
4.85637922815e-06
4.83530998143e-06
4.81829113159e-06
4.80536290706e-06
4.79657371048e-06
4.78981662168e-06
1.21417155474e-66
1.21417155474e-66
1.21417155474e-66
1.21417155474e-66
1.21417155474e-66
1.21417155474e-66
1.21417155474e-66
1.21417155474e-66
1.21417155474e-66
1.21417155474e-66
1.21417155474e-66
1.21417155474e-66
1.21417155474e-66
1.21417155474e-66
1.21417155474e-66
1.21417155478e-66
1.21417155685e-66
1.21417167842e-66
1.21417857673e-66
1.21457177502e-66
1.22474753857e-66
1.16063980889e-26
6.60146219588e-08
0.000491714801752
3.010781554e-05
1.36640186138e-05
9.08354480798e-06
7.5692100356e-06
7.04865939561e-06
6.84796911394e-06
6.75019205395e-06
6.67952230509e-06
6.61485887813e-06
6.55258915904e-06
6.49145792287e-06
6.43146499811e-06
6.3722129116e-06
6.31341965562e-06
6.25483511779e-06
6.19673838582e-06
6.13859639888e-06
6.08037913849e-06
6.02492271104e-06
5.96657636538e-06
5.90789029322e-06
5.84899095469e-06
5.79003212638e-06
5.73101036547e-06
5.67182151279e-06
5.6128930584e-06
5.554295454e-06
5.49883983733e-06
5.44151587352e-06
5.38525112836e-06
5.33012621093e-06
5.27649104832e-06
5.22487349451e-06
5.17534487018e-06
5.12831142106e-06
5.08695396791e-06
5.04587900718e-06
5.00811545422e-06
4.97391333614e-06
4.94342300047e-06
4.91712049813e-06
4.89495088747e-06
4.87700839692e-06
4.86342635847e-06
4.85419170957e-06
4.84726526041e-06
1.21417155471e-66
1.21417155471e-66
1.21417155471e-66
1.21417155471e-66
1.21417155471e-66
1.21417155471e-66
1.21417155471e-66
1.21417155471e-66
1.21417155471e-66
1.21417155471e-66
1.21417155471e-66
1.21417155471e-66
1.21417155471e-66
1.21417155471e-66
1.21417155471e-66
1.2141715548e-66
1.2141715599e-66
1.2141718589e-66
1.21418875397e-66
1.21516112529e-66
1.23325331841e-66
6.13458925377e-20
7.44252020869e-06
0.00037140328043
2.45935082278e-05
1.25381821644e-05
8.9385761634e-06
7.73726722824e-06
7.31208290869e-06
7.13591940904e-06
7.03343945136e-06
6.95191737781e-06
6.87561600259e-06
6.80188819026e-06
6.73003827375e-06
6.65949526219e-06
6.58997144584e-06
6.52446321973e-06
6.45679374064e-06
6.38953831596e-06
6.32291031061e-06
6.25647966712e-06
6.19027753188e-06
6.12436745319e-06
6.05849744555e-06
5.9924855894e-06
5.9296716193e-06
5.86413485522e-06
5.79896721313e-06
5.73410203632e-06
5.6697696118e-06
5.60638288253e-06
5.54405760326e-06
5.48290541029e-06
5.42638221827e-06
5.36886338305e-06
5.31350612746e-06
5.26049029402e-06
5.21050180938e-06
5.16356561063e-06
5.11996176451e-06
5.07987106065e-06
5.04651673345e-06
5.01434060004e-06
4.98640971525e-06
4.96297566354e-06
4.94409750695e-06
4.92972523427e-06
4.91989373302e-06
4.91266691493e-06
1.21417155468e-66
1.21417155468e-66
1.21417155468e-66
1.21417155468e-66
1.21417155468e-66
1.21417155468e-66
1.21417155468e-66
1.21417155468e-66
1.21417155468e-66
1.21417155468e-66
1.21417155468e-66
1.21417155468e-66
1.21417155468e-66
1.21417155468e-66
1.21417155469e-66
1.21417155492e-66
1.21417156861e-66
1.21417236292e-66
1.21421649668e-66
1.21669722248e-66
1.25228986144e-66
1.6924391772e-14
0.000128223861006
9.17635379794e-05
2.0744109496e-05
1.17523481951e-05
8.91182982279e-06
7.96371591924e-06
7.60871497158e-06
7.44820099363e-06
7.33977720526e-06
7.24704479515e-06
7.15870104577e-06
7.07290100254e-06
6.99187121234e-06
6.90975819892e-06
6.82941879048e-06
6.75025183825e-06
6.67252556772e-06
6.59561420951e-06
6.51969202901e-06
6.44452237142e-06
6.37275808639e-06
6.29844741257e-06
6.22462911707e-06
6.15138240799e-06
6.07847365835e-06
6.00602506467e-06
5.93427432715e-06
5.86612636901e-06
5.79604061196e-06
5.72712419802e-06
5.65937336716e-06
5.5934629986e-06
5.52946527402e-06
5.46749481966e-06
5.41108950258e-06
5.35439613679e-06
5.30112143039e-06
5.25121656057e-06
5.20487363929e-06
5.16234421459e-06
5.12405046425e-06
5.09016977023e-06
5.06079634732e-06
5.03890878256e-06
5.01878877527e-06
5.00353110524e-06
4.99317877862e-06
4.98575455643e-06
1.21417155466e-66
1.21417155466e-66
1.21417155466e-66
1.21417155466e-66
1.21417155466e-66
1.21417155466e-66
1.21417155466e-66
1.21417155466e-66
1.21417155466e-66
1.21417155466e-66
1.21417155466e-66
1.21417155466e-66
1.21417155466e-66
1.21417155466e-66
1.21417155467e-66
1.21417155523e-66
1.21417158701e-66
1.21417339636e-66
1.21427213221e-66
1.21963606004e-66
1.28398158496e-66
6.28064994093e-11
0.000289471233238
5.04807199734e-05
1.80450247657e-05
1.12095238431e-05
9.00640855876e-06
8.24830659189e-06
7.94624560525e-06
7.79138817516e-06
7.67198847686e-06
7.56556622979e-06
7.46655548087e-06
7.36710034451e-06
7.27052098971e-06
7.17605865433e-06
7.08388232665e-06
6.99337133993e-06
6.90761690447e-06
6.82008609731e-06
6.7338928198e-06
6.64897237036e-06
6.56521110011e-06
6.48217075402e-06
6.40005573789e-06
6.32169865414e-06
6.24114823248e-06
6.16159634801e-06
6.08281975888e-06
6.00529613957e-06
5.92911357507e-06
5.85719600162e-06
5.784084403e-06
5.7130811077e-06
5.64417646957e-06
5.57782126987e-06
5.51438098434e-06
5.45690918978e-06
5.40000847946e-06
5.34689346188e-06
5.29766555258e-06
5.25253987724e-06
5.21207062497e-06
5.17618193092e-06
5.14523821215e-06
5.11919312269e-06
5.09809118833e-06
5.08499468302e-06
5.073922801e-06
5.06617488914e-06
1.21417155464e-66
1.21417155464e-66
1.21417155464e-66
1.21417155464e-66
1.21417155464e-66
1.21417155464e-66
1.21417155464e-66
1.21417155464e-66
1.21417155464e-66
1.21417155464e-66
1.21417155464e-66
1.21417155464e-66
1.21417155464e-66
1.21417155464e-66
1.21417155467e-66
1.21417155628e-66
1.21417165001e-66
1.21417694408e-66
1.21447389941e-66
1.22352515083e-66
7.51030550097e-27
2.02693764735e-08
0.000455580856189
3.59105721643e-05
1.6080826091e-05
1.09074485707e-05
9.20290153587e-06
8.59244867609e-06
8.32553316564e-06
8.16407426547e-06
8.0328067622e-06
7.91047683556e-06
7.79271490012e-06
7.67868691567e-06
7.56779899522e-06
7.46329674093e-06
7.35808332087e-06
7.25535515993e-06
7.15490880655e-06
7.05615714022e-06
6.95947245154e-06
6.86727314628e-06
6.7733484796e-06
6.68082163666e-06
6.58971583817e-06
6.49972290179e-06
6.41433294805e-06
6.32706118698e-06
6.24097727923e-06
6.15672659221e-06
6.07405499819e-06
5.99308010275e-06
5.91736627463e-06
5.8409549552e-06
5.76720635619e-06
5.69631693055e-06
5.62844623733e-06
5.56425479828e-06
5.5069957068e-06
5.45046800706e-06
5.39824279476e-06
5.35065238259e-06
5.30785157936e-06
5.26990709533e-06
5.23708998902e-06
5.20944886045e-06
5.18714142411e-06
5.17009863454e-06
5.16151074816e-06
5.15028192662e-06
1.21417155462e-66
1.21417155462e-66
1.21417155462e-66
1.21417155462e-66
1.21417155462e-66
1.21417155462e-66
1.21417155462e-66
1.21417155462e-66
1.21417155462e-66
1.21417155462e-66
1.21417155462e-66
1.21417155462e-66
1.21417155462e-66
1.21417155462e-66
1.21417155471e-66
1.21417155944e-66
1.21417183098e-66
1.21418685276e-66
1.2150281821e-66
1.23134343921e-66
2.65665829103e-26
1.43005109267e-06
0.000454003678322
2.80623367624e-05
1.46838583179e-05
1.07752359054e-05
9.47699626527e-06
8.9846312308e-06
8.73440365539e-06
8.56489256957e-06
8.41553444831e-06
8.27457952975e-06
8.13954206335e-06
8.01248405294e-06
7.88627072073e-06
7.76399843874e-06
7.64502460047e-06
7.52894663849e-06
7.41944137214e-06
7.30876281293e-06
7.2004297233e-06
7.09431494637e-06
6.99356329764e-06
6.89104325103e-06
6.790532556e-06
6.69145934824e-06
6.59426121138e-06
6.50205112254e-06
6.40837892947e-06
6.31670849049e-06
6.22736496813e-06
6.14006349248e-06
6.05870049294e-06
5.97653793936e-06
5.89760763746e-06
5.82203949243e-06
5.75004144308e-06
5.68167887537e-06
5.62070916952e-06
5.56095710322e-06
5.50584261451e-06
5.45564988076e-06
5.41042343757e-06
5.370357143e-06
5.33586854676e-06
5.30680085397e-06
5.28328538112e-06
5.26537435459e-06
5.25631652963e-06
5.24795052555e-06
1.21417155461e-66
1.21417155461e-66
1.21417155461e-66
1.21417155461e-66
1.21417155461e-66
1.21417155461e-66
1.21417155461e-66
1.21417155461e-66
1.21417155461e-66
1.21417155461e-66
1.21417155461e-66
1.21417155461e-66
1.21417155461e-66
1.21417155461e-66
1.21417155488e-66
1.21417157021e-66
1.21417244682e-66
1.214220518e-66
1.21687586539e-66
1.25457267097e-66
1.85867441434e-14
0.00012589487562
0.000105138884198
2.30308724071e-05
1.3694121095e-05
1.0812404763e-05
9.81880195645e-06
9.40518144622e-06
9.16918505546e-06
8.98686330539e-06
8.8192958361e-06
8.66298023359e-06
8.50966989714e-06
8.36149703009e-06
8.21853176352e-06
8.08361732599e-06
7.94977467668e-06
7.81968194164e-06
7.69348744841e-06
7.5736091297e-06
7.45335874685e-06
7.33567514198e-06
7.22073519327e-06
7.11119461521e-06
7.00085073753e-06
6.89250712065e-06
6.78646411642e-06
6.68267807004e-06
6.58445251031e-06
6.48511097911e-06
6.38843912346e-06
6.29462745292e-06
6.20381982491e-06
6.11937634653e-06
6.03518862588e-06
5.95475153614e-06
5.87817725864e-06
5.80572210267e-06
5.74110343165e-06
5.67797463585e-06
5.61990390011e-06
5.56700465376e-06
5.51944120423e-06
5.477500774e-06
5.44115796686e-06
5.4105138144e-06
5.38898824928e-06
5.37007757179e-06
5.3570890199e-06
5.34844171768e-06
1.21417155459e-66
1.21417155459e-66
1.21417155459e-66
1.21417155459e-66
1.21417155459e-66
1.21417155459e-66
1.21417155459e-66
1.21417155459e-66
1.21417155459e-66
1.21417155459e-66
1.21417155459e-66
1.21417155459e-66
1.21417155459e-66
1.21417155461e-66
1.21417155537e-66
1.21417159779e-66
1.21417395269e-66
1.2143005965e-66
1.22085595307e-66
7.76675755823e-28
5.28758166567e-10
0.000322255810517
5.06589863636e-05
1.97252685644e-05
1.31215098409e-05
1.09983457425e-05
1.02346654454e-05
9.87258011457e-06
9.63145722382e-06
9.43043082803e-06
9.24546603559e-06
9.06554825513e-06
8.89260264657e-06
8.73006278434e-06
8.56953739523e-06
8.41496477902e-06
8.26521198115e-06
8.12358244854e-06
7.98284866481e-06
7.84595118778e-06
7.71645581108e-06
7.58677885891e-06
7.4604118298e-06
7.33686815295e-06
7.21969030537e-06
7.10187959818e-06
6.98654107945e-06
6.8740925684e-06
6.76793606588e-06
6.66095178163e-06
6.55719408857e-06
6.45662179602e-06
6.36269394852e-06
6.26911187124e-06
6.17937983884e-06
6.09379150395e-06
6.01241353279e-06
5.93589472427e-06
5.86778687879e-06
5.80110087632e-06
5.73982879843e-06
5.68418440845e-06
5.63429518387e-06
5.59024469492e-06
5.55208937264e-06
5.52337507852e-06
5.49736927138e-06
5.47750940479e-06
5.46376524813e-06
5.45481479049e-06
1.21417155458e-66
1.21417155458e-66
1.21417155458e-66
1.21417155458e-66
1.21417155458e-66
1.21417155458e-66
1.21417155458e-66
1.21417155458e-66
1.21417155458e-66
1.21417155458e-66
1.21417155458e-66
1.21417155458e-66
1.21417155458e-66
1.21417155464e-66
1.21417155773e-66
1.21417173306e-66
1.21418135068e-66
1.21471015967e-66
1.22707505663e-66
1.48799729216e-26
1.09708645644e-07
0.000493637328241
3.49563351599e-05
1.75355127179e-05
1.28564365018e-05
1.13215118843e-05
1.07125619724e-05
1.0375143181e-05
1.01247657834e-05
9.89935859773e-06
9.68709015207e-06
9.48487473862e-06
9.29470598901e-06
9.10874392305e-06
8.93387565077e-06
8.76170628055e-06
8.59561505839e-06
8.43862441475e-06
8.28309305654e-06
8.13233378316e-06
7.9861677159e-06
7.84719235639e-06
7.70872786679e-06
7.5738852231e-06
7.44620958707e-06
7.31802270349e-06
7.19354638964e-06
7.07230002243e-06
6.95769580288e-06
6.8430859907e-06
6.73199951083e-06
6.62438512081e-06
6.52449451664e-06
6.42485667954e-06
6.32966568424e-06
6.23904929707e-06
6.15318069027e-06
6.07566464757e-06
6.00002046319e-06
5.92993411958e-06
5.86561333107e-06
5.80719712814e-06
5.75470316503e-06
5.71200092917e-06
5.67201301938e-06
5.63838455166e-06
5.61114276477e-06
5.59034711295e-06
5.5758967195e-06
5.5665085093e-06
1.21417155457e-66
1.21417155457e-66
1.21417155457e-66
1.21417155457e-66
1.21417155457e-66
1.21417155457e-66
1.21417155457e-66
1.21417155457e-66
1.21417155457e-66
1.21417155457e-66
1.21417155457e-66
1.21417155457e-66
1.21417155458e-66
1.21417155479e-66
1.21417156678e-66
1.21417223877e-66
1.21420852691e-66
1.21618721735e-66
1.24693314955e-66
2.64774845912e-18
6.86009558544e-05
0.000233244125089
2.70456256889e-05
1.61047694587e-05
1.28586828746e-05
1.17419963176e-05
1.12317299232e-05
1.09045904123e-05
1.06341852925e-05
1.03834859163e-05
1.01497804508e-05
9.92364606516e-06
9.70731536042e-06
9.5038707389e-06
9.30560531948e-06
9.11875959331e-06
8.93574235641e-06
8.75903765564e-06
8.5921164433e-06
8.42665382028e-06
8.26682651566e-06
8.11536884288e-06
7.96435438196e-06
7.81810338513e-06
7.67936908583e-06
7.54100835674e-06
7.40655786338e-06
7.27583542067e-06
7.15294980344e-06
7.03047897682e-06
6.9120103853e-06
6.79750927281e-06
6.69136215386e-06
6.58591221262e-06
6.4849874281e-06
6.38937042269e-06
6.302546176e-06
6.21742562436e-06
6.13801983589e-06
6.06450830104e-06
5.99705111901e-06
5.93576104473e-06
5.88436386814e-06
5.83585552755e-06
5.79398675882e-06
5.75878102603e-06
5.7302690304e-06
5.70838337667e-06
5.69314119998e-06
5.68335489446e-06
1.21417155456e-66
1.21417155456e-66
1.21417155456e-66
1.21417155456e-66
1.21417155456e-66
1.21417155456e-66
1.21417155456e-66
1.21417155456e-66
1.21417155456e-66
1.21417155456e-66
1.21417155456e-66
1.21417155456e-66
1.21417155458e-66
1.21417155537e-66
1.21417159904e-66
1.21417398926e-66
1.21429961879e-66
1.22077824758e-66
2.06014540663e-28
1.98340056063e-10
0.000291930395669
6.00092282147e-05
2.23952142707e-05
1.53095848404e-05
1.30681627167e-05
1.22335384627e-05
1.17850347066e-05
1.14516632629e-05
1.11565940013e-05
1.08834919508e-05
1.06203342386e-05
1.03736302497e-05
1.0134764698e-05
9.91023739915e-06
9.69147848053e-06
9.48182566644e-06
9.28409290787e-06
9.0901637278e-06
8.90739360226e-06
8.72746881813e-06
8.5533529244e-06
8.38874062167e-06
8.22570620483e-06
8.06729594995e-06
7.91800196667e-06
7.76921199528e-06
7.62479329222e-06
7.48907670694e-06
7.35350373063e-06
7.22266888265e-06
7.09653377759e-06
6.97902849687e-06
6.8624986921e-06
6.75103708563e-06
6.64492745547e-06
6.54800612114e-06
6.45290082793e-06
6.36367231924e-06
6.28052900705e-06
6.20359089095e-06
6.13688011534e-06
6.07279639446e-06
6.01545491428e-06
5.96496759252e-06
5.92128422135e-06
5.88457427711e-06
5.85471331599e-06
5.83187785811e-06
5.81583871309e-06
5.80921660477e-06
1.21417155455e-66
1.21417155455e-66
1.21417155455e-66
1.21417155455e-66
1.21417155455e-66
1.21417155455e-66
1.21417155455e-66
1.21417155455e-66
1.21417155455e-66
1.21417155455e-66
1.21417155455e-66
1.21417155456e-66
1.21417155463e-66
1.21417155863e-66
1.21417178097e-66
1.21418375096e-66
1.21482961087e-66
1.2288952819e-66
1.76993268951e-26
1.68618047741e-07
0.000496100611607
3.73518205622e-05
1.96641234791e-05
1.50026695403e-05
1.34736373879e-05
1.2805508743e-05
1.23748197306e-05
1.20209066395e-05
1.16960403141e-05
1.1390395052e-05
1.11039779145e-05
1.08324423138e-05
1.05697577719e-05
1.03234436817e-05
1.0083786054e-05
9.85477768142e-06
9.63884849449e-06
9.42793854458e-06
9.22859762584e-06
9.03308636328e-06
8.84428360599e-06
8.66640899017e-06
8.49059290939e-06
8.32450685982e-06
8.15996076724e-06
8.00084337816e-06
7.84685800342e-06
7.70177668381e-06
7.55791723853e-06
7.41914441339e-06
7.28955991264e-06
7.16076727721e-06
7.03785945653e-06
6.92040743558e-06
6.8127354526e-06
6.70693521488e-06
6.60734452224e-06
6.51383912857e-06
6.43106180425e-06
6.35070586289e-06
6.27714564867e-06
6.21048546571e-06
6.15081095402e-06
6.09821635844e-06
6.05679892908e-06
6.01832380221e-06
5.9871481544e-06
5.96321597269e-06
5.94635197338e-06
5.93560152134e-06
1.21417155454e-66
1.21417155455e-66
1.21417155455e-66
1.21417155455e-66
1.21417155455e-66
1.21417155455e-66
1.21417155455e-66
1.21417155455e-66
1.21417155455e-66
1.21417155455e-66
1.21417155455e-66
1.21417155455e-66
1.21417155491e-66
1.21417157453e-66
1.21417265682e-66
1.21423012366e-66
1.21727841177e-66
1.25961573811e-66
2.18564842241e-14
0.000120374167966
0.000157136378349
2.81690175859e-05
1.80574141073e-05
1.50628973992e-05
1.39871260884e-05
1.34141364573e-05
1.29828352136e-05
1.25992988639e-05
1.22459527178e-05
1.19082974537e-05
1.15938746664e-05
1.12919145287e-05
1.10093357675e-05
1.07361034026e-05
1.0479786017e-05
1.02311252371e-05
9.99668909514e-06
9.76835217672e-06
9.5531565293e-06
9.3420524323e-06
9.14330194254e-06
8.94750726296e-06
8.75849669936e-06
8.58040874766e-06
8.40414379023e-06
8.23449466136e-06
8.07501585666e-06
7.91700713612e-06
7.76431672918e-06
7.6221014448e-06
7.48102605132e-06
7.34564435018e-06
7.22053233243e-06
7.09725421696e-06
6.98016835564e-06
6.8694802057e-06
6.76963529341e-06
6.67199203854e-06
6.58125361735e-06
6.49751878802e-06
6.42099683061e-06
6.35168763432e-06
6.29384371097e-06
6.23917821012e-06
6.19199160449e-06
6.15214359971e-06
6.11981917155e-06
6.09484774212e-06
6.07718463773e-06
6.06598208082e-06
1.21417155454e-66
1.21417155454e-66
1.21417155454e-66
1.21417155454e-66
1.21417155454e-66
1.21417155454e-66
1.21417155454e-66
1.21417155454e-66
1.21417155454e-66
1.21417155454e-66
1.21417155454e-66
1.21417155457e-66
1.21417155645e-66
1.21417166143e-66
1.21417738387e-66
1.2144844324e-66
1.22419630596e-66