/*--------------------------------*- C++ -*----------------------------------*\
| =========                 |                                                 |
| \\      /  F ield         | foam-extend: Open Source CFD                    |
|  \\    /   O peration     | Version:     4.1                                |
|   \\  /    A nd           | Web:         http://www.foam-extend.org         |
|    \\/     M anipulation  |                                                 |
\*---------------------------------------------------------------------------*/
FoamFile
{
    version     2.0;
    format      ascii;
    class       volScalarField;
    location    "0.0006";
    object      NPlus;
}
// * * * * * * * * * * * * * * * * * * * * * * * * * * * * * * * * * * * * * //

dimensions      [0 0 0 0 0 0 0];

internalField   nonuniform List<scalar> 
8400
(
9.99867027177e-266
9.99867027182e-266
9.99867027188e-266
9.99867027194e-266
9.99867027199e-266
9.99867027205e-266
9.9986702721e-266
9.99867027216e-266
9.99867027221e-266
9.99867027226e-266
9.99867027231e-266
9.99867027236e-266
9.99867027241e-266
9.99867027245e-266
9.9986702725e-266
9.99867027255e-266
9.99867027259e-266
9.99867027265e-266
9.99867027339e-266
9.99867031436e-266
9.9986727052e-266
9.99880708318e-266
1.00065023415e-265
1.01666646018e-265
3.88988847936e-99
1.56003966286e-16
0.000559207961557
0.211154204155
0.403335704222
0.497388045517
0.536696353511
0.551741124581
0.556926939183
0.558708534886
0.5594800804
0.560006277909
0.560460492891
0.560886830889
0.561301287181
0.561711531722
0.562122395395
0.56254224383
0.56291724326
0.5633651982
0.563829582723
0.564315446745
0.56482590443
0.565363978185
0.565930585294
0.566525156588
0.567148209866
0.567799144782
0.568476088741
0.569177950664
0.569904218689
0.570587230613
0.571338928047
0.572092973929
0.572843038357
0.573578171823
0.574286184748
0.574961144798
0.575592548457
0.576171166875
0.576687952098
0.577133761582
0.577500928731
0.577783583781
0.577977295033
0.578278595636
9.9986702558e-266
9.99867025583e-266
9.99867025585e-266
9.99867025587e-266
9.99867025589e-266
9.99867025592e-266
9.99867025594e-266
9.99867025596e-266
9.99867025598e-266
9.998670256e-266
9.99867025602e-266
9.99867025604e-266
9.99867025606e-266
9.99867025608e-266
9.9986702561e-266
9.99867025612e-266
9.99867025614e-266
9.99867025622e-266
9.99867025989e-266
9.99867047301e-266
9.9986828811e-266
9.99937314289e-266
1.00383260627e-265
1.05548671379e-265
6.95130250759e-41
1.00865804455e-06
0.0580871192585
0.305456023725
0.454629445442
0.521943803119
0.548504498248
0.557983247578
0.560968755147
0.561959168501
0.562439493045
0.562830977403
0.563213477573
0.563604700097
0.564009169085
0.564427410098
0.564862797559
0.565317016945
0.565792573288
0.566290485039
0.566811439065
0.567355101708
0.567925103394
0.568523801455
0.569151285402
0.569805420901
0.570484056329
0.571187159722
0.571911923068
0.57265657866
0.573417808324
0.574187507197
0.574958617119
0.575727174803
0.576484610415
0.577217935049
0.577920225513
0.578584137076
0.579201193966
0.579761555561
0.580255772682
0.580679137377
0.581025963429
0.581291146074
0.58147242105
0.581717071931
9.99867024863e-266
9.99867024864e-266
9.99867024866e-266
9.99867024867e-266
9.99867024869e-266
9.9986702487e-266
9.99867024871e-266
9.99867024872e-266
9.99867024874e-266
9.99867024875e-266
9.99867024876e-266
9.99867024878e-266
9.99867024879e-266
9.9986702488e-266
9.99867024881e-266
9.99867024882e-266
9.99867024884e-266
9.99867024918e-266
9.99867026828e-266
9.99867139473e-266
9.99873588083e-266
1.00024356669e-265
1.01096799579e-265
1.67540363764e-99
2.15738036198e-20
0.000107353164467
0.170518470242
0.382915742064
0.492031860474
0.53791404132
0.555220092588
0.560988247395
0.562642137759
0.563271899585
0.563626384167
0.563948895418
0.564277186137
0.564621649546
0.564985350505
0.565369099848
0.565830937395
0.566261237619
0.566718097544
0.567199822386
0.567709680973
0.568249014008
0.568818975063
0.569419017295
0.570045869161
0.570701138454
0.571384129307
0.572091380992
0.572816615357
0.573557735131
0.57431167012
0.575017590691
0.575780059789
0.576533934812
0.577267417985
0.577976652207
0.578653751944
0.579291031313
0.579878340383
0.580408798036
0.580876713854
0.581275437658
0.581601262308
0.581850490185
0.582020631139
0.582232158438
9.99867024451e-266
9.99867024452e-266
9.99867024453e-266
9.99867024454e-266
9.99867024455e-266
9.99867024456e-266
9.99867024457e-266
9.99867024458e-266
9.99867024458e-266
9.99867024459e-266
9.9986702446e-266
9.99867024461e-266
9.99867024462e-266
9.99867024463e-266
9.99867024464e-266
9.99867024465e-266
9.99867024468e-266
9.99867024626e-266
9.99867033895e-266
9.99867578716e-266
9.99898231295e-266
1.001657143e-265
1.0308760266e-265
3.55356792388e-63
7.38505635401e-09
0.0116900451009
0.260756627452
0.433581901489
0.513882692552
0.546111468571
0.557806728262
0.561512310145
0.562611057185
0.563075883238
0.563429557044
0.563771789722
0.564123008453
0.5644884553
0.564871639948
0.565274696731
0.56570004286
0.566204543576
0.566676817157
0.567174655589
0.56770201651
0.568259207216
0.568847415654
0.569465537882
0.570110286947
0.57078315728
0.571483681521
0.572146022046
0.572884880864
0.573637704306
0.574397176376
0.575158747117
0.575918411007
0.576667336887
0.577393353064
0.578093075871
0.578758371414
0.579381536405
0.579953270457
0.58046805323
0.580921210301
0.581306914128
0.58162117917
0.581861002612
0.582024372635
0.582217175206
9.99867024186e-266
9.99867024187e-266
9.99867024188e-266
9.99867024189e-266
9.99867024189e-266
9.9986702419e-266
9.99867024191e-266
9.99867024192e-266
9.99867024192e-266
9.99867024193e-266
9.99867024194e-266
9.99867024194e-266
9.99867024195e-266
9.99867024196e-266
9.99867024196e-266
9.99867024197e-266
9.99867024207e-266
9.99867024709e-266
9.99867054007e-266
9.99868759169e-266
9.9996365862e-266
1.00528812975e-265
1.0713441847e-265
6.48059944103e-30
3.89935945171e-06
0.0837130073959
0.325805759105
0.464592261593
0.525816258675
0.549613328544
0.557950570372
0.560475751467
0.5613650402
0.561840339852
0.562250294752
0.562654203247
0.563066667831
0.563491582918
0.563932177206
0.56438822922
0.564864711259
0.565363269354
0.565887403387
0.56643736784
0.567013183592
0.567614980113
0.568245252264
0.56890545925
0.569593128032
0.570302635472
0.571034844137
0.571786004305
0.572553289168
0.573333438877
0.574117632685
0.574897203152
0.575669856701
0.5764302027
0.577167474251
0.577873004387
0.578540865723
0.579165641616
0.579680810272
0.580197717401
0.580650979799
0.581035924707
0.581347245251
0.581583469357
0.581744435822
0.58192718771
9.99867024005e-266
9.99867024005e-266
9.99867024006e-266
9.99867024007e-266
9.99867024007e-266
9.99867024008e-266
9.99867024009e-266
9.99867024009e-266
9.9986702401e-266
9.9986702401e-266
9.99867024011e-266
9.99867024011e-266
9.99867024012e-266
9.99867024013e-266
9.99867024013e-266
9.99867024014e-266
9.9986702404e-266
9.99867025527e-266
9.99867113832e-266
9.99872222795e-266
1.00016580501e-265
1.009897986e-265
1.19345957138e-99
2.33851415827e-21
6.55746527701e-05
0.154209016491
0.370962770052
0.484128494926
0.5320402562
0.550260451856
0.556481234134
0.558390485751
0.559229432486
0.559779687455
0.560283330339
0.560781324056
0.561283771873
0.561794407967
0.562316955953
0.562855003709
0.563411301919
0.563987512724
0.564582911151
0.565201981667
0.565846783711
0.566517503868
0.567212255824
0.567931021714
0.568675653498
0.569443590177
0.570228167678
0.571027029009
0.571838382676
0.572657829178
0.57348052647
0.574298060313
0.575046179859
0.575830953653
0.576589295709
0.577315848685
0.578002743687
0.578640835107
0.579222835289
0.579746387912
0.580205747104
0.580595849877
0.580912255458
0.581152218157
0.581314564745
0.581490701612
9.99867023874e-266
9.99867023875e-266
9.99867023875e-266
9.99867023876e-266
9.99867023876e-266
9.99867023877e-266
9.99867023877e-266
9.99867023878e-266
9.99867023878e-266
9.99867023879e-266
9.99867023879e-266
9.9986702388e-266
9.9986702388e-266
9.99867023881e-266
9.99867023881e-266
9.99867023883e-266
9.99867023954e-266
9.99867028109e-266
9.99867272397e-266
9.99881103749e-266
1.00067677753e-265
1.01721220578e-265
4.0389695288e-99
2.9010677481e-16
0.000633865449677
0.214754351038
0.404257023832
0.496941501581
0.534898889899
0.549157752246
0.553910186335
0.555530661219
0.556403351194
0.557058741813
0.557676860698
0.558288701441
0.558902759076
0.559522151292
0.560148528995
0.56078490071
0.561434863547
0.562100919772
0.562786456165
0.563494452094
0.564223844755
0.564972944313
0.56574551273
0.566542545243
0.567358777226
0.568192339196
0.568986338022
0.569847875258
0.570719120178
0.571593753149
0.572463820875
0.573325677863
0.574172375506
0.574993473015
0.575785373604
0.576539591478
0.577249603476
0.577909975898
0.578513299213
0.579054396016
0.579469370055
0.5798730994
0.580199194036
0.580446132124
0.580612940962
0.580788674855
9.99867023776e-266
9.99867023777e-266
9.99867023777e-266
9.99867023778e-266
9.99867023778e-266
9.99867023779e-266
9.99867023779e-266
9.9986702378e-266
9.9986702378e-266
9.9986702378e-266
9.99867023781e-266
9.99867023781e-266
9.99867023782e-266
9.99867023782e-266
9.99867023782e-266
9.99867023786e-266
9.99867023978e-266
9.99867035245e-266
9.99867696519e-266
9.99904959614e-266
1.00204583814e-265
1.03586284548e-265
5.66361142802e-63
3.29110507932e-08
0.0181346158297
0.26436544619
0.428775719374
0.504901148657
0.535722010637
0.54699419894
0.55075058635
0.552133689103
0.552996645536
0.553812626089
0.554549927057
0.55528242168
0.556016898737
0.556754820242
0.557495365467
0.558242615742
0.559002416386
0.559776368638
0.56056314013
0.561368821527
0.562137078894
0.562981078821
0.563845464685
0.564726330272
0.565622825776
0.566537027057
0.56746216243
0.568392515594
0.569327065622
0.570261719238
0.571192029773
0.572107580939
0.573003359356
0.573815981951
0.574649754634
0.575441049127
0.576185448442
0.576876409831
0.577506019267
0.578067315793
0.57855831127
0.578974699966
0.579312395502
0.579568569881
0.579741680253
0.579918231497
9.99867023701e-266
9.99867023702e-266
9.99867023702e-266
9.99867023702e-266
9.99867023703e-266
9.99867023703e-266
9.99867023704e-266
9.99867023704e-266
9.99867023704e-266
9.99867023705e-266
9.99867023705e-266
9.99867023705e-266
9.99867023706e-266
9.99867023706e-266
9.99867023707e-266
9.99867023714e-266
9.99867024159e-266
9.99867050048e-266
9.99868554836e-266
9.99952244974e-266
1.00464573631e-265
1.06462756627e-265
4.63936051968e-34
1.98572548594e-06
0.0665546077084
0.305366418096
0.446626694397
0.509639336092
0.534593359258
0.543767629515
0.546861446819
0.548201226211
0.549167606402
0.550054421365
0.550918897859
0.551778331095
0.552636005835
0.553497186123
0.554362261007
0.555231336183
0.556110310922
0.557001348959
0.55789976957
0.55881206711
0.559738988759
0.560684013987
0.561645476562
0.562618064729
0.563606677796
0.56460715721
0.565611813054
0.56662442279
0.567577057586
0.568581527962
0.569575859093
0.570553486977
0.571504529034
0.572425986508
0.57330867386
0.574142006144
0.574923943406
0.57564704319
0.576306512539
0.576837484233
0.577353086142
0.577787870754
0.5781397506
0.578406623105
0.578587014474
0.578764482085
9.99867023642e-266
9.99867023642e-266
9.99867023642e-266
9.99867023643e-266
9.99867023643e-266
9.99867023643e-266
9.99867023644e-266
9.99867023644e-266
9.99867023644e-266
9.99867023645e-266
9.99867023645e-266
9.99867023645e-266
9.99867023646e-266
9.99867023646e-266
9.99867023647e-266
9.99867023662e-266
9.99867024552e-266
9.99867077218e-266
9.99870181104e-266
1.00004809541e-265
1.00818872319e-265
4.15012274835e-100
9.82621871553e-24
2.21870754467e-05
0.119325241987
0.339719181662
0.459587536251
0.512014470745
0.532328173042
0.539668440437
0.542380869413
0.543757936219
0.544857607787
0.545893323304
0.546910351927
0.5479133655
0.548911290065
0.549908804672
0.550902949376
0.551899943823
0.552902012248
0.553914886286
0.554935255713
0.555965222533
0.557009947485
0.558064774756
0.559131149563
0.560149103049
0.56123175985
0.562323890918
0.5634213435
0.564515019517
0.565606149479
0.566685517636
0.567747730726
0.568788916448
0.569746784592
0.570723933017
0.571656216005
0.572539230501
0.573366013181
0.574126761762
0.574818256123
0.575435018867
0.575972659248
0.576426993135
0.576795641089
0.57707540821
0.577265213518
0.577446473352
9.99867023594e-266
9.99867023594e-266
9.99867023594e-266
9.99867023594e-266
9.99867023595e-266
9.99867023595e-266
9.99867023595e-266
9.99867023596e-266
9.99867023596e-266
9.99867023596e-266
9.99867023597e-266
9.99867023597e-266
9.99867023597e-266
9.99867023598e-266
9.99867023599e-266
9.99867023642e-266
9.9986702619e-266
9.99867175446e-266
9.99875645195e-266
1.00035841441e-265
1.01285222608e-265
2.2546069432e-99
1.88033772481e-19
0.000148987752748
0.169430998531
0.368289285212
0.469335433998
0.512193054024
0.528847981068
0.534949632572
0.537378304442
0.538848424436
0.540114029305
0.541317547513
0.542499414538
0.543660761582
0.54480955004
0.545951428691
0.54709179448
0.548226563743
0.549364529567
0.550507279531
0.551597488619
0.552749976038
0.553913102809
0.555084397992
0.556260675357
0.557443046418
0.55863455062
0.559825321684
0.561014925823
0.562143458093
0.563317221088
0.56447476506
0.565613639449
0.566726626802
0.567802895576
0.568840802578
0.569830150014
0.570700780345
0.571571898193
0.572373841484
0.573104618344
0.573756415375
0.574320760625
0.574796168842
0.575180350801
0.575471628264
0.575669659691
0.575852951992
9.99867023554e-266
9.99867023554e-266
9.99867023554e-266
9.99867023555e-266
9.99867023555e-266
9.99867023555e-266
9.99867023556e-266
9.99867023556e-266
9.99867023556e-266
9.99867023556e-266
9.99867023557e-266
9.99867023557e-266
9.99867023557e-266
9.99867023558e-266
9.9986702356e-266
9.99867023667e-266
9.99867029931e-266
9.99867397038e-266
9.9988814082e-266
1.0010820192e-265
1.02329563023e-265
1.45934282371e-64
4.96792834431e-12
0.00126487077571
0.217259684411
0.392053511212
0.476079937615
0.511080906298
0.52459177511
0.529616149927
0.531930135431
0.53353022335
0.534972237415
0.536358204781
0.537710786969
0.539042342542
0.540359194206
0.541602815745
0.54289396309
0.54418137979
0.545460945453
0.54674147904
0.548022653367
0.549303091178
0.550588054468
0.551882961171
0.553119134875
0.554416370815
0.555711892921
0.557007755693
0.558299853877
0.559579705519
0.560843313033
0.562090839699
0.563246923752
0.564431412033
0.565575763812
0.566676785679
0.567720290747
0.568703637402
0.569620643882
0.570468544386
0.571172533291
0.571857771318
0.572451738232
0.572950602072
0.573352803484
0.57365857779
0.573867341617
0.574054653401
9.99867023521e-266
9.99867023521e-266
9.99867023521e-266
9.99867023522e-266
9.99867023522e-266
9.99867023522e-266
9.99867023522e-266
9.99867023523e-266
9.99867023523e-266
9.99867023523e-266
9.99867023523e-266
9.99867023524e-266
9.99867023524e-266
9.99867023524e-266
9.99867023529e-266
9.99867023818e-266
9.99867040624e-266
9.99868015877e-266
9.99922203353e-266
1.00296804073e-265
1.04666871492e-265
8.15375989383e-47
1.99281209484e-07
0.0271391306172
0.261287778142
0.410856072751
0.480344073618
0.508674067652
0.519653815645
0.523865218945
0.526113649164
0.527849559743
0.529467662531
0.531038875789
0.532526065877
0.534040349169
0.535527804222
0.537000108057
0.538451576154
0.53989463515
0.541325760797
0.542750319082
0.544114648997
0.545535952538
0.546954550408
0.548369659214
0.549785842532
0.551200955065
0.55261044547
0.553954046546
0.55534625741
0.556721724924
0.558082543195
0.559413867328
0.56071387687
0.561980003663
0.563134762872
0.564302880199
0.565405257328
0.5664430845
0.567410283737
0.568302184191
0.569108293745
0.569822702861
0.570443498204
0.570904115016
0.571329619924
0.571651076018
0.571869238862
0.572058314703
9.99867023493e-266
9.99867023493e-266
9.99867023493e-266
9.99867023493e-266
9.99867023494e-266
9.99867023494e-266
9.99867023494e-266
9.99867023494e-266
9.99867023495e-266
9.99867023495e-266
9.99867023495e-266
9.99867023495e-266
9.99867023496e-266
9.99867023496e-266
9.99867023508e-266
9.99867024192e-266
9.99867063216e-266
9.99869284735e-266
9.99990512697e-266
1.00657634813e-265
1.08557984162e-265
3.0521602588e-27
5.62644398206e-06
0.0794262070236
0.299559222662
0.425750301613
0.482130234904
0.505049746206
0.513947793534
0.517614263064
0.519909249272
0.521820726695
0.523579633938
0.525351429477
0.527081230628
0.528782351142
0.5304507447
0.532098801162
0.53366666354
0.535277962314
0.536872649178
0.538452288102
0.54001906085
0.541581173738
0.543135759426
0.544626332771
0.546169517627
0.54770240504
0.549230267744
0.55074325147
0.552239220209
0.553657051685
0.555109999229
0.556528725295
0.557913962757
0.559255639989
0.560545828255
0.561718172671
0.562887315086
0.563983163109
0.565002906943
0.56594192808
0.566787724162
0.567538412042
0.56818754096
0.568732553724
0.569174670195
0.56944721186
0.569679738086
0.569873061106
9.99867023468e-266
9.99867023469e-266
9.99867023469e-266
9.99867023469e-266
9.99867023469e-266
9.9986702347e-266
9.9986702347e-266
9.9986702347e-266
9.9986702347e-266
9.99867023471e-266
9.99867023471e-266
9.99867023471e-266
9.99867023471e-266
9.99867023472e-266
9.99867023506e-266
9.99867025489e-266
9.99867140565e-266
9.99873640625e-266
1.00023824266e-265
1.0113513773e-265
1.48059730055e-99
5.90620591569e-21
6.2033688311e-05
0.135290922343
0.332471532793
0.436467969494
0.481835367873
0.500232756349
0.507509397823
0.510921566238
0.513288078341
0.515406835311
0.517440555325
0.519419223532
0.521356206545
0.523191385435
0.525052892206
0.526881896342
0.528681248108
0.530463087595
0.532219304447
0.533902267988
0.535630581407
0.537343809425
0.539041435135
0.540730201768
0.542340781461
0.543999908418
0.545647435292
0.547270380047
0.548873282506
0.550455134162
0.551940756326
0.553452291399
0.554919920649
0.556338988726
0.557705993326
0.559005917899
0.560169669737
0.561326541203
0.56239955135
0.563381577918
0.564268839413
0.565056137484
0.565739543534
0.566313853752
0.566777971514
0.56713413775
0.567308870647
0.567575010975
9.99867023448e-266
9.99867023448e-266
9.99867023448e-266
9.99867023448e-266
9.99867023448e-266
9.99867023449e-266
9.99867023449e-266
9.99867023449e-266
9.99867023449e-266
9.99867023449e-266
9.9986702345e-266
9.9986702345e-266
9.9986702345e-266
9.99867023452e-266
9.99867023553e-266
9.99867029367e-266
9.99867362756e-266
9.99885806515e-266
1.00091879144e-265
1.02095067882e-265
4.8216423093e-99
8.36545326562e-15
0.000579900104893
0.189320499217
0.359679828068
0.444046483447
0.479928701605
0.494480394967
0.500596328088
0.503835424568
0.506389526049
0.508751379533
0.511019612468
0.513165666051
0.515314956248
0.517413368243
0.5194704531
0.521492515865
0.523412313903
0.52537002265
0.52729957501
0.52920358029
0.53102326985
0.532890766676
0.534734012201
0.53656465841
0.538374289282
0.540102359587
0.541872563535
0.543616196973
0.545327555428
0.547012476572
0.548590336623
0.550198037777
0.551752666717
0.553249727014
0.554685748287
0.556057919668
0.557285437421
0.558496952704
0.559618442713
0.560645484542
0.561574208377
0.56239863392
0.563109899005
0.563709491051
0.564194505192
0.564564362345
0.564745631543
0.564944483142
9.99867023429e-266
9.99867023429e-266
9.9986702343e-266
9.9986702343e-266
9.9986702343e-266
9.9986702343e-266
9.9986702343e-266
9.99867023431e-266
9.99867023431e-266
9.99867023431e-266
9.99867023431e-266
9.99867023431e-266
9.99867023432e-266
9.99867023438e-266
9.99867023766e-266
9.99867042584e-266
9.99868118886e-266
9.99927140728e-266
1.00318737865e-265
1.04947155052e-265
8.75534263348e-47
1.84456660222e-07
0.0212133938101
0.23962960148
0.381848747794
0.448421534961
0.476597181726
0.488151509951
0.49329474573
0.496491461437
0.499233577917
0.501769814042
0.504275829557
0.506718154166
0.509094745217
0.511354423049
0.513617571114
0.515834231792
0.518004532802
0.520080192495
0.522181668991
0.524255200305
0.526297235433
0.528256394807
0.530249283744
0.532220512341
0.534164731478
0.536085199717
0.537914148114
0.539781398371
0.541610643936
0.543398974776
0.545144408799
0.546776246093
0.548416907344
0.549994666998
0.551506136163
0.552946063428
0.554233762816
0.55550122473
0.55667390015
0.557746528508
0.558713560936
0.559569218062
0.560311338566
0.560939319769
0.561375699936
0.561761402655
0.562023593023
0.562223447689
9.99867023413e-266
9.99867023413e-266
9.99867023413e-266
9.99867023414e-266
9.99867023414e-266
9.99867023414e-266
9.99867023414e-266
9.99867023414e-266
9.99867023415e-266
9.99867023415e-266
9.99867023415e-266
9.99867023415e-266
9.99867023416e-266
9.99867023432e-266
9.99867024366e-266
9.99867076444e-266
9.99869967797e-266
1.00002546119e-265
1.00807413389e-265
1.57767085475e-100
3.77470182621e-25
9.07818040531e-06
0.0804454672786
0.283077014533
0.398002397343
0.449961143607
0.471788047213
0.480995624478
0.485620772031
0.488905195105
0.491816269527
0.49465265694
0.497403443129
0.500011913865
0.502615169169
0.505144975463
0.507622179038
0.509981946494
0.512353203188
0.514679897466
0.516899110254
0.51914241141
0.521348538081
0.523525250855
0.525603505278
0.527715984535
0.529800508986
0.531851139225
0.533800690423
0.535784727379
0.53772394631
0.539620037124
0.541401060283
0.543192243119
0.544922187827
0.546584472893
0.548175199746
0.549680571416
0.551025629376
0.55235304906
0.553577261337
0.554693208921
0.555698933588
0.556589200932
0.557362316202
0.55794134574
0.558468926176
0.558868606119
0.559141682954
0.559343170707
9.99867023399e-266
9.99867023399e-266
9.99867023399e-266
9.99867023399e-266
9.99867023399e-266
9.998670234e-266
9.998670234e-266
9.998670234e-266
9.998670234e-266
9.998670234e-266
9.99867023401e-266
9.99867023401e-266
9.99867023402e-266
9.99867023469e-266
9.99867027269e-266
9.99867242534e-266
9.99879051063e-266
1.00052832321e-265
1.01570995484e-265
2.82495007944e-99
1.01069830853e-18
0.00014576036399
0.143886114147
0.318725908083
0.409209399283
0.448865649303
0.465743423411
0.47326281184
0.477551582421
0.481032051259
0.484261816963
0.487360521725
0.490300668912
0.493212145371
0.495977284705
0.49873118025
0.501415489486
0.503976788791
0.506543376492
0.509054447111
0.51151537803
0.513874140575
0.516250599511
0.518587089999
0.520817266952
0.523079629084
0.525297431473
0.527477374708
0.529553666121
0.531651388373
0.533701094469
0.535706455341
0.537578176074
0.539463969176
0.54127806833
0.543018353603
0.544681381818
0.546188467093
0.547671073388
0.549052163683
0.550326316021
0.551488459977
0.552537298134
0.553389146382
0.554192201795
0.554866702548
0.555412131849
0.555826819731
0.556111072724
0.556316315846
9.99867023386e-266
9.99867023386e-266
9.99867023386e-266
9.99867023386e-266
9.99867023386e-266
9.99867023387e-266
9.99867023387e-266
9.99867023387e-266
9.99867023387e-266
9.99867023387e-266
9.99867023388e-266
9.99867023388e-266
9.99867023393e-266
9.99867023654e-266
9.99867038378e-266
9.99867863449e-266
9.9991241806e-266
1.00234185597e-265
1.04009173923e-265
5.47650060281e-63
1.72988637995e-08
0.00422989575558
0.203581733091
0.346879146484
0.41581456762
0.445763979789
0.458822639379
0.46512383423
0.469343024885
0.473040967685
0.476484697118
0.479852855899
0.483115536845
0.486217693542
0.489281027977
0.492197633601
0.495090663869
0.497917103519
0.500611207633
0.5033151787
0.505955776055
0.508480626051
0.511026921534
0.513520639859
0.515905521678
0.518311547458
0.520672225575
0.522991344446
0.525186700475
0.527399750333
0.529558571383
0.531665945597
0.533632275734
0.535604699918
0.537507398347
0.539325627015
0.540985416234
0.54262739047
0.544167596618
0.545601793339
0.546924143318
0.548132420614
0.549146641016
0.550109702505
0.550941956501
0.551641622001
0.552206979348
0.552637734986
0.55293392072
0.553142907536
9.99867023374e-266
9.99867023374e-266
9.99867023375e-266
9.99867023375e-266
9.99867023375e-266
9.99867023375e-266
9.99867023375e-266
9.99867023375e-266
9.99867023376e-266
9.99867023376e-266
9.99867023376e-266
9.99867023376e-266
9.99867023394e-266
9.99867024367e-266
9.99867077982e-266
9.99870012706e-266
1.00002426075e-265
1.00797872702e-265
4.1893165422e-101
1.34570010563e-26
5.77258700355e-06
0.0613837020472
0.255265680514
0.367056213009
0.418649630577
0.441071187987
0.451187771894
0.456758537087
0.461047418387
0.464923690724
0.468689799496
0.472261681888
0.475771945914
0.479111833868
0.4824116602
0.485614768719
0.488669478961
0.491706937346
0.494598885549
0.497482489721
0.500306892216
0.503002876442
0.505706137773
0.508362119615
0.510889033721
0.513436894427
0.515937735828
0.518307002837
0.520701763078
0.523035336106
0.525307969738
0.527439444212
0.529576832485
0.531637768277
0.533617603821
0.535436407544
0.537238933129
0.53894137368
0.540538084188
0.542025545224
0.54331740355
0.54456797604
0.545690581153
0.546682803202
0.547541558553
0.548264329727
0.548849717196
0.549295216666
0.549604389979
0.549742481862
9.99867023364e-266
9.99867023364e-266
9.99867023364e-266
9.99867023364e-266
9.99867023364e-266
9.99867023365e-266
9.99867023365e-266
9.99867023365e-266
9.99867023365e-266
9.99867023365e-266
9.99867023365e-266
9.99867023367e-266
9.99867023455e-266
9.99867028367e-266
9.99867301361e-266
9.99881998129e-266
1.0006749855e-265
1.01794482908e-265
3.29984747948e-99
4.01056343641e-18
0.000153789253379
0.133688833854
0.295747992846
0.380164056444
0.417864105061
0.434708105764
0.442898285167
0.448145139893
0.452618695356
0.456817651266
0.460796720298
0.464625076081
0.468387217543
0.47196008873
0.475491901337
0.478913260442
0.482178579867
0.485414069308
0.488507409245
0.491582960392
0.494590602868
0.497453804742
0.500321213228
0.503056604905
0.505803008347
0.508488495403
0.511116212263
0.513614582867
0.516122115978
0.518565656039
0.520867658166
0.523180935982
0.525409134269
0.527557886681
0.529540170116
0.53150943286
0.533376500482
0.535143327577
0.536713058756
0.53825049586
0.539664577785
0.540952135518
0.542109243642
0.543133059893
0.54393549674
0.544685425084
0.545290290218
0.545751623869
0.546071314267
0.546287700909
9.99867023354e-266
9.99867023354e-266
9.99867023355e-266
9.99867023355e-266
9.99867023355e-266
9.99867023355e-266
9.99867023355e-266
9.99867023355e-266
9.99867023355e-266
9.99867023356e-266
9.99867023356e-266
9.99867023364e-266
9.99867023799e-266
9.99867047886e-266
9.99868376724e-266
9.99938934563e-266
1.00368162545e-265
1.05566343289e-265
9.792156087e-47
1.54231016244e-07
0.00988963257489
0.198946929728
0.326127817674
0.387333903805
0.414680379827
0.427362614737
0.434284155872
0.439496703455
0.444157048592
0.448653658591
0.452903255239
0.45705536184
0.460998127815
0.464874468036
0.468562629172
0.472197390259
0.475668613705
0.479101554916
0.482376044785
0.485636885622
0.488742430706
0.491844096503
0.494877587492
0.497765630415
0.500663129203
0.503485467394
0.506164480997
0.508853236225
0.511479626098
0.513948851678
0.516427796321
0.518831555042
0.521068966081
0.52329955209
0.525434822828
0.527473587703
0.529323304064
0.531149170544
0.532856408524
0.534442160597
0.53589908939
0.537226315031
0.538332317201
0.539385196564
0.540295598182
0.541063244398
0.541684764789
0.542160436716
0.542490278489
0.54270792364
9.99867023346e-266
9.99867023346e-266
9.99867023346e-266
9.99867023346e-266
9.99867023346e-266
9.99867023346e-266
9.99867023346e-266
9.99867023347e-266
9.99867023347e-266
9.99867023347e-266
9.99867023348e-266
9.99867023389e-266
9.99867025696e-266
9.99867154584e-266
9.99874180608e-266
1.00025117507e-265
1.01217542217e-265
1.24103681213e-99
6.87436560305e-22
2.45021721242e-05
0.0812594442379
0.251442744972
0.345966237975
0.389508775183
0.409439280436
0.419237331697
0.425578144025
0.430836508569
0.435813595714
0.440517928544
0.445034187376
0.449450935474
0.453644671719
0.457754979952
0.461662138985
0.465437318843
0.469169230146
0.472797983526
0.476251243244
0.479685665605
0.482956926229
0.486217594983
0.489326744376
0.492431703458
0.49546269313
0.498343546311
0.501230345239
0.504047900015
0.50669943653
0.509353670617
0.511925850179
0.514333057543
0.516733383979
0.519035900311
0.521241525792
0.523258334715
0.525253424867
0.527131292622
0.528887558635
0.530424527123
0.531923986721
0.533286712812
0.534510407561
0.535590990022
0.536526045578
0.537315450456
0.537865044663
0.538358484641
0.538701863996
0.538925721148
9.99867023338e-266
9.99867023338e-266
9.99867023338e-266
9.99867023338e-266
9.99867023338e-266
9.99867023338e-266
9.99867023338e-266
9.99867023339e-266
9.99867023339e-266
9.99867023339e-266
9.99867023344e-266
9.99867023603e-266
9.99867037909e-266
9.99867824739e-266
9.99909519035e-266
1.00211208814e-265
1.03748970523e-265
3.39133334695e-63
7.8769336203e-10
0.000826997677156
0.15663467493
0.290319711699
0.357307449437
0.388007902498
0.402565166894
0.410697951652
0.416818115795
0.422279860258
0.427522678785
0.43248934625
0.437265058695
0.441918018264
0.446342471218
0.450615973756
0.454812391207
0.458796775951
0.462726889592
0.466458469515
0.470163204913
0.473686221838
0.477190161198
0.480522874451
0.483848947849
0.487096555455
0.490174772619
0.493257096907
0.496260740657
0.499102096321
0.501942223099
0.504697834875
0.507279669557
0.509858377367
0.512337211519
0.514624406696
0.516896478105
0.519056379824
0.521104735343
0.522933247575
0.524735880293
0.526404282515
0.527936035363
0.529330171032
0.530484666025
0.531593140353
0.532549826592
0.533356778417
0.53401215061
0.53451714596
0.534873183301
0.535101176882
9.9986702333e-266
9.9986702333e-266
9.99867023331e-266
9.99867023331e-266
9.99867023331e-266
9.99867023331e-266
9.99867023331e-266
9.99867023331e-266
9.99867023331e-266
9.99867023332e-266
9.99867023361e-266
9.99867024906e-266
9.99867109387e-266
9.99871733517e-266
1.00011944649e-265
1.01032565086e-265
5.28365348083e-100
4.20118988941e-24
8.35834410244e-06
0.0511449854956
0.218966653141
0.315982644685
0.36227130589
0.383806125292
0.394839772519
0.402084309522
0.408197006032
0.413903536248
0.419402573958
0.424623453262
0.42963341063
0.434521965226
0.439170031257
0.443644102513
0.448034225383
0.452215251065
0.456330415153
0.460253325008
0.464047951418
0.467810754492
0.471466159638
0.474942852328
0.478405457254
0.481692442824
0.484977142354
0.48808807581
0.49120007438
0.494222449792
0.497068837203