/*--------------------------------*- C++ -*----------------------------------*\
| =========                 |                                                 |
| \\      /  F ield         | foam-extend: Open Source CFD                    |
|  \\    /   O peration     | Version:     4.1                                |
|   \\  /    A nd           | Web:         http://www.foam-extend.org         |
|    \\/     M anipulation  |                                                 |
\*---------------------------------------------------------------------------*/
FoamFile
{
    version     2.0;
    format      ascii;
    class       volScalarField;
    location    "0.0006";
    object      O;
}
// * * * * * * * * * * * * * * * * * * * * * * * * * * * * * * * * * * * * * //

dimensions      [0 0 0 0 0 0 0];

internalField   nonuniform List<scalar> 
8400
(
7.23199834651e-54
7.23199834654e-54
7.23199834657e-54
7.2319983466e-54
7.23199834664e-54
7.23199834667e-54
7.2319983467e-54
7.23199834673e-54
7.23199834676e-54
7.23199834679e-54
7.23199834681e-54
7.23199834684e-54
7.23199834687e-54
7.2319983469e-54
7.23199834692e-54
7.23199834695e-54
7.23199834697e-54
7.23199834701e-54
7.23199834743e-54
7.23199837056e-54
7.23199972079e-54
7.23207561066e-54
7.23642150265e-54
7.32687303196e-54
1.0603119003e-18
0.183381352262
0.232110786938
0.190340008724
0.142043979551
0.112202810312
0.0979925050815
0.0922004940911
0.0901624884757
0.0894663450282
0.0891702997234
0.0889721441165
0.0888019587495
0.0886424031907
0.0884872648016
0.0883335171485
0.0881791855179
0.0880213162377
0.0878803948556
0.0877114918555
0.0875361686276
0.0873526576983
0.0871595993763
0.0869557137129
0.0867409147905
0.0865152099944
0.0862785324978
0.0860310537043
0.0857732592919
0.0855058200665
0.0852284715842
0.0849676819655
0.0846800376121
0.0843913977075
0.0841036298067
0.0838215212824
0.0835493340539
0.0832897658911
0.0830464067365
0.0828233559258
0.0826239073815
0.0824516626466
0.08230974211
0.0822004084194
0.0821252641589
0.0820030633163
7.23199833749e-54
7.2319983375e-54
7.23199833752e-54
7.23199833753e-54
7.23199833754e-54
7.23199833756e-54
7.23199833757e-54
7.23199833758e-54
7.23199833759e-54
7.2319983376e-54
7.23199833762e-54
7.23199833763e-54
7.23199833764e-54
7.23199833765e-54
7.23199833766e-54
7.23199833767e-54
7.23199833768e-54
7.23199833773e-54
7.2319983398e-54
7.23199846016e-54
7.23200546762e-54
7.2323952925e-54
7.25439392787e-54
7.54611015441e-54
2.03386964306e-05
0.231276092359
0.221192095282
0.168368979085
0.126426152387
0.103512073245
0.0935258909329
0.0897989382927
0.0886100062378
0.0882172150836
0.0880294661004
0.0878779315694
0.08773035006
0.0875797101407
0.0874241703727
0.0872632771772
0.0870960125308
0.0869217313903
0.0867389971032
0.0865478488385
0.0863479703803
0.0861391529339
0.0859204063055
0.085690606941
0.085449797768
0.0851987210473
0.0849380707504
0.084667986352
0.0843892745459
0.0841028232919
0.0838096401506
0.0835129956799
0.0832155134127
0.082918826797
0.0826263011247
0.0823425480176
0.082070557968
0.0818129247443
0.0815732043584
0.0813553912762
0.0811629607027
0.0809980979636
0.080863004766
0.0807593768478
0.0806884366869
0.0805884868207
7.23199833344e-54
7.23199833345e-54
7.23199833346e-54
7.23199833346e-54
7.23199833347e-54
7.23199833348e-54
7.23199833349e-54
7.23199833349e-54
7.2319983335e-54
7.23199833351e-54
7.23199833352e-54
7.23199833352e-54
7.23199833353e-54
7.23199833354e-54
7.23199833354e-54
7.23199833355e-54
7.23199833356e-54
7.23199833375e-54
7.23199834454e-54
7.2319989807e-54
7.23203539918e-54
7.2341248509e-54
7.29469099248e-54
4.34004731306e-19
0.0827110214558
0.231934084444
0.198991767947
0.147887396535
0.114082621977
0.0976041459324
0.0909192470691
0.0886273259707
0.0879636816608
0.0877137421765
0.0875744851845
0.0874487861866
0.0873211256376
0.0871875721525
0.0870469421634
0.0868988619848
0.0867208155271
0.0865550212256
0.0863792062697
0.0861937161095
0.0859976577415
0.0857903863291
0.0855713273356
0.0853409059257
0.085099947997
0.0848481977551
0.0845855291585
0.0843135100564
0.0840342888737
0.0837488577127
0.0834581126551
0.0831858429066
0.0828914561949
0.0826003757223
0.0823164245274
0.0820417871769
0.0817787985615
0.0815311988932
0.0813027858887
0.0810963506832
0.0809142522756
0.0807587002867
0.0806314953911
0.0805341424894
0.0804676063218
0.0803814302669
7.23199833111e-54
7.23199833112e-54
7.23199833112e-54
7.23199833113e-54
7.23199833113e-54
7.23199833114e-54
7.23199833115e-54
7.23199833115e-54
7.23199833116e-54
7.23199833116e-54
7.23199833117e-54
7.23199833117e-54
7.23199833118e-54
7.23199833118e-54
7.23199833119e-54
7.23199833119e-54
7.23199833121e-54
7.2319983321e-54
7.23199838445e-54
7.23200146132e-54
7.23217457155e-54
7.24210801366e-54
7.40712146321e-54
6.14982411807e-11
0.230102851039
0.230131371686
0.17913844998
0.13301307453
0.106434627517
0.0944680767343
0.0898879432637
0.0884110540151
0.0879719914122
0.0877882146379
0.0876500007935
0.0875170274891
0.0873809074386
0.0872394963342
0.0870915919816
0.0869363705934
0.0867724723207
0.0865785131127
0.0863971293935
0.0862057349091
0.0860032004724
0.0857893425519
0.0855635422509
0.0853264430395
0.0850788449035
0.0848205404353
0.0845512543913
0.0842966984509
0.084012404785
0.0837226493751
0.0834299510566
0.0831363490652
0.0828431772227
0.0825541274324
0.0822731244231
0.0820022785015
0.0817440058222
0.0815020790528
0.0812798444951
0.0810795793214
0.0809032730397
0.0807528870823
0.0806302304609
0.0805365910903
0.0804727449229
0.0803943500692
7.23199832962e-54
7.23199832962e-54
7.23199832963e-54
7.23199832963e-54
7.23199832964e-54
7.23199832964e-54
7.23199832964e-54
7.23199832965e-54
7.23199832965e-54
7.23199832966e-54
7.23199832966e-54
7.23199832967e-54
7.23199832967e-54
7.23199832967e-54
7.23199832968e-54
7.23199832968e-54
7.23199832973e-54
7.23199833257e-54
7.23199849803e-54
7.23200812792e-54
7.23254407194e-54
7.26261398703e-54
7.63566511524e-54
0.00105626702522
0.231494539698
0.216293512521
0.16322683958
0.123220739562
0.10209136915
0.0930844623559
0.0898007696354
0.0887958820217
0.0884447184301
0.0882592343258
0.0881005669867
0.0879447506348
0.0877857443494
0.0876222754084
0.0874530935028
0.0872779654861
0.0870952756626
0.0869043789018
0.0867034342069
0.0864928185376
0.0862722803172
0.086041698674
0.0858003497005
0.0855473695775
0.0852840039121
0.085011872182
0.0847311286254
0.0844426410244
0.0841479855918
0.0838478201412
0.0835460231059
0.0832455813486
0.0829476974639
0.0826543197886
0.0823694693235
0.0820964725447
0.081837813341
0.0815954319705
0.081395688494
0.0811946132674
0.081018255289
0.0808684774971
0.0807471680327
0.0806550026949
0.0805921481269
0.0805179392979
7.23199832859e-54
7.2319983286e-54
7.2319983286e-54
7.2319983286e-54
7.23199832861e-54
7.23199832861e-54
7.23199832862e-54
7.23199832862e-54
7.23199832862e-54
7.23199832863e-54
7.23199832863e-54
7.23199832863e-54
7.23199832863e-54
7.23199832864e-54
7.23199832864e-54
7.23199832865e-54
7.23199832879e-54
7.23199833719e-54
7.23199883589e-54
7.23202768873e-54
7.23368569235e-54
7.28864811931e-54
3.06016695378e-19
0.0596927058075
0.231872156722
0.202359084146
0.151217774871
0.116745717819
0.0997486088986
0.0927826977056
0.0903347216148
0.0895812051375
0.0892544203489
0.0890426174309
0.088849473871
0.0886588970916
0.0884668365331
0.0882715081125
0.0880718795075
0.0878663973717
0.087654010147
0.0874342528621
0.0872069578416
0.0869708251438
0.0867246763967
0.0864686155911
0.0862031931396
0.0859284066301
0.0856436193001
0.0853498152167
0.0850493654745
0.0847432930486
0.0844320634183
0.084117657856
0.0838012804753
0.0834867299268
0.0831985315539
0.0828960062475
0.0826034299487
0.0823227800701
0.0820571104353
0.08181016895
0.0815845906415
0.0813816764774
0.0812031832156
0.0810514047275
0.0809283017669
0.0808349460725
0.0807717759629
0.0807004508175
7.23199832786e-54
7.23199832786e-54
7.23199832786e-54
7.23199832787e-54
7.23199832787e-54
7.23199832787e-54
7.23199832787e-54
7.23199832788e-54
7.23199832788e-54
7.23199832788e-54
7.23199832788e-54
7.23199832789e-54
7.23199832789e-54
7.23199832789e-54
7.2319983279e-54
7.2319983279e-54
7.23199832831e-54
7.23199835177e-54
7.23199973139e-54
7.23207784385e-54
7.23657140623e-54
7.32995512661e-54
1.1064106503e-18
0.190555650941
0.23211698036
0.189553573991
0.141774289225
0.112342558815
0.0986300586337
0.0931512409038
0.0912881538203
0.0906569438457
0.0903225629552
0.0900734062408
0.089838340869
0.0896060167281
0.0893726936676
0.0891374952074
0.088899625431
0.0886579841933
0.0884111945435
0.0881580882131
0.0878976628887
0.0876284677498
0.0873511829454
0.0870660577565
0.0867719545922
0.0864682311147
0.0861569300334
0.0858386488384
0.0855352966923
0.0852059880798
0.0848723661946
0.084537288262
0.0842036391805
0.0838726340181
0.0835471237913
0.083230950393
0.0829259256298
0.0826348561102
0.082360786944
0.0821055109261
0.0818723112815
0.0816627987936
0.0815021223417
0.0813456531581
0.0812191109737
0.0811230447014
0.0810581644627
0.0809873410446
7.2319983273e-54
7.23199832731e-54
7.23199832731e-54
7.23199832731e-54
7.23199832731e-54
7.23199832732e-54
7.23199832732e-54
7.23199832732e-54
7.23199832732e-54
7.23199832733e-54
7.23199832733e-54
7.23199832733e-54
7.23199832733e-54
7.23199832734e-54
7.23199832734e-54
7.23199832736e-54
7.23199832845e-54
7.23199839207e-54
7.23200212661e-54
7.23221256969e-54
7.24430316684e-54
7.43528448946e-54
1.0263262224e-10
0.230537574136
0.228859185788
0.178308303514
0.134464062089
0.109529867336
0.0982599849619
0.0939258011139
0.0924626593209
0.0919297758622
0.0916028064658
0.0912954180003
0.091018045533
0.0907426034556
0.0904660927379
0.0901881206525
0.0899086588396
0.0896264999607
0.0893393350534
0.0890468314341
0.0887491728956
0.0884443589379
0.0881532855027
0.0878334289939
0.0875054400015
0.0871708644759
0.0868300869318
0.0864821383286
0.0861297754672
0.0857749476942
0.0854180447887
0.0850607980853
0.0847046059958
0.0843537631828
0.0840102852588
0.0836979383167
0.0833772829665
0.0830726111142
0.0827857339501
0.0825190705227
0.0822760316737
0.0820590712358
0.0818692630488
0.0817081718402
0.0815773340782
0.0814780900118
0.0814110422103
0.0813403718484
7.23199832688e-54
7.23199832688e-54
7.23199832688e-54
7.23199832689e-54
7.23199832689e-54
7.23199832689e-54
7.23199832689e-54
7.23199832689e-54
7.2319983269e-54
7.2319983269e-54
7.2319983269e-54
7.2319983269e-54
7.23199832691e-54
7.23199832691e-54
7.23199832691e-54
7.23199832695e-54
7.23199832947e-54
7.23199847567e-54
7.23200697395e-54
7.23247961345e-54
7.25898607434e-54
7.59773305761e-54
0.000243279595002
0.231386511181
0.219585145555
0.168407541867
0.128922426893
0.107801727377
0.0986131667608
0.0950986503464
0.0939054409525
0.0933967088374
0.0930344659225
0.0927033394958
0.0923804654834
0.0920594112952
0.0917389496798
0.0914165727803
0.0910927186902
0.0907672044953
0.0904376324638
0.0901031957687
0.089765120614
0.0894216116453
0.0890720681345
0.0887153460464
0.0883521709075
0.087984173706
0.0876096246871
0.0872301689946
0.0868484911664
0.0864633489627
0.0861008493945
0.0857179467121
0.0853383047611
0.0849646193912
0.0846005816934
0.0842473788075
0.0839087629031
0.0835885471223
0.0832878720903
0.0830092809284
0.0827550854205
0.0825503670984
0.0823514578374
0.0821836204082
0.0820475950306
0.0819444500971
0.0818747581729
0.0818039564612
7.23199832654e-54
7.23199832655e-54
7.23199832655e-54
7.23199832655e-54
7.23199832655e-54
7.23199832655e-54
7.23199832656e-54
7.23199832656e-54
7.23199832656e-54
7.23199832656e-54
7.23199832656e-54
7.23199832656e-54
7.23199832657e-54
7.23199832657e-54
7.23199832657e-54
7.23199832666e-54
7.23199833168e-54
7.23199862912e-54
7.23201615829e-54
7.23302092817e-54
7.27899506907e-54
1.04673520439e-19
0.0243803935167
0.231731960981
0.209373952583
0.159633373143
0.124769558065
0.106895572099
0.0993881172796
0.0965923845242
0.0955599829921
0.0950445315904
0.0946366541115
0.0942531559023
0.0938763606016
0.0935044312257
0.0931340878201
0.0927635010716
0.0923935882125
0.0920223237788
0.0916488275833
0.0912707174911
0.0908894920789
0.0905042465472
0.090112681539
0.0897167316562
0.0893158830921
0.0889326146611
0.0885241603475
0.0881115368197
0.0876963148585
0.0872819051739
0.0868676176672
0.0864573574424
0.0860532365088
0.0856562670729
0.0852906265223
0.0849171664446
0.0845604104318
0.0842220632726
0.0839049658108
0.083612720498
0.083346930326
0.0831095089354
0.0829024586667
0.0827275131567
0.0825853247036
0.0824774289717
0.0824042524515
0.0823321904037
7.23199832627e-54
7.23199832627e-54
7.23199832628e-54
7.23199832628e-54
7.23199832628e-54
7.23199832628e-54
7.23199832628e-54
7.23199832628e-54
7.23199832629e-54
7.23199832629e-54
7.23199832629e-54
7.23199832629e-54
7.23199832629e-54
7.23199832629e-54
7.2319983263e-54
7.23199832655e-54
7.23199834094e-54
7.23199918386e-54
7.23204701671e-54
7.23477345261e-54
7.30533217039e-54
5.93828723289e-19
0.10850101708
0.231969017925
0.199246909535
0.151958558563
0.121562485473
0.10676312987
0.100608140987
0.0983066750002
0.0973963543951
0.0968533905481
0.0963887107543
0.0959468642034
0.0955125259471
0.0950852535685
0.0946620117646
0.094240697503
0.0938192828515
0.0933994166883
0.0929777581147
0.0925537573511
0.0921489596326
0.0917198395612
0.0912864563323
0.0908493902418
0.0904097267256
0.0899670526965
0.0895201510252
0.0890726070442
0.0886244992923
0.0881986137815
0.0877547167754
0.0873163973824
0.0868843771487
0.0864615192004
0.0860520679899
0.0856564354728
0.085278836038
0.0849462846089
0.0846130005717
0.0843060779124
0.0840258431279
0.0837758822682
0.0835589936424
0.0833762810006
0.0832286769801
0.0831166914429
0.0830405341875
0.0829679020524
7.23199832605e-54
7.23199832605e-54
7.23199832605e-54
7.23199832605e-54
7.23199832605e-54
7.23199832606e-54
7.23199832606e-54
7.23199832606e-54
7.23199832606e-54
7.23199832606e-54
7.23199832606e-54
7.23199832607e-54
7.23199832607e-54
7.23199832607e-54
7.23199832608e-54
7.23199832669e-54
7.23199836206e-54
7.2320004353e-54
7.23211758567e-54
7.23886000584e-54
7.36431122547e-54
2.37718631325e-12
0.224979481849
0.23209859781
0.189035050536
0.145288653762
0.119283449498
0.10708545614
0.102106934666
0.100232474121
0.0993805015635
0.0987982061985
0.0982744077467
0.0977702225329
0.0972773225365
0.0967912217257
0.0963095659958
0.0958541975464
0.0953807215416
0.0949076662201
0.0944365900721
0.0939643742394
0.093491216574
0.0930175131282
0.0925412606126
0.092060624432
0.0916008844979
0.0911175120709
0.090633986231
0.09014944549
0.0896655005281
0.0891853277849
0.0887101673536
0.0882398086618
0.0878029499419
0.0873545692369
0.0869207491397
0.0865027079789
0.0861056865034
0.0857311877584
0.085381687749
0.0850576948879
0.0847887021429
0.0845264035085
0.0842990927722
0.0841080394836
0.0839539024262
0.0838367456662
0.0837567828143
0.0836829949826
7.23199832586e-54
7.23199832586e-54
7.23199832586e-54
7.23199832586e-54
7.23199832587e-54
7.23199832587e-54
7.23199832587e-54
7.23199832587e-54
7.23199832587e-54
7.23199832587e-54
7.23199832588e-54
7.23199832588e-54
7.23199832588e-54
7.23199832588e-54
7.23199832591e-54
7.23199832754e-54
7.23199842245e-54
7.23200393019e-54
7.23230995359e-54
7.24951129978e-54
7.49631056481e-54
2.20198076005e-07
0.230957748769
0.227115927975
0.179063113278
0.139805440748
0.117797144818
0.107867124502
0.103846504197
0.102295115128
0.101479882607
0.100855510998
0.100274699895
0.0997090345422
0.0991727725482
0.0986255272516
0.0980866753
0.0975518317821
0.0970232340573
0.096496652758
0.0959733811648
0.0954515911078
0.0949510097926
0.0944283145427
0.0939056279373
0.0933832344929
0.0928593337218
0.092334922071
0.0918114831254
0.0913115884588
0.0907926860957
0.09027869089
0.0897693136889
0.0892699492407
0.0887814305477
0.0883047992877
0.0878693918733
0.0874278892001
0.0870100612372
0.0866161810666
0.0862486562038
0.0859091551517
0.0856020407533
0.0853297265363
0.0850927523255
0.0849168814961
0.0847543081807
0.08463156331
0.0845482193921
0.0844739943748
7.2319983257e-54
7.2319983257e-54
7.2319983257e-54
7.23199832571e-54
7.23199832571e-54
7.23199832571e-54
7.23199832571e-54
7.23199832571e-54
7.23199832571e-54
7.23199832571e-54
7.23199832572e-54
7.23199832572e-54
7.23199832572e-54
7.23199832572e-54
7.23199832579e-54
7.23199832965e-54
7.23199855004e-54
7.23201109605e-54
7.23269573016e-54
7.26988919169e-54
7.71606089243e-54
0.0041997490804
0.231540032132
0.217140329183
0.16988131786
0.135312690848
0.117128715508
0.109077536884
0.105849837047
0.104520207419
0.103700956415
0.10302118036
0.102395130423
0.10176341379
0.101145674021
0.100535992538
0.0999371884793
0.0993439996514
0.098778557993
0.0981960926612
0.0976180424418
0.097043722522
0.0964725777457
0.0959017198044
0.0953324169953
0.0947857443878
0.0942180863464
0.0936530579613
0.0930887194597
0.0925286874338
0.0919736736082
0.0914465020023
0.0909051881394
0.0903755490972
0.0898573992235
0.0893544845712
0.0888698330262
0.0884289935399
0.0879884346938
0.0875747568868
0.0871892499945
0.0868338063375
0.0865127546256
0.0862276722042
0.0859806281158
0.0857732686548
0.085605003794
0.0855013450802
0.0854127812901
0.0853373470908
7.23199832557e-54
7.23199832557e-54
7.23199832557e-54
7.23199832557e-54
7.23199832557e-54
7.23199832557e-54
7.23199832557e-54
7.23199832557e-54
7.23199832558e-54
7.23199832558e-54
7.23199832558e-54
7.23199832558e-54
7.23199832558e-54
7.23199832559e-54
7.23199832578e-54
7.23199833697e-54
7.23199898687e-54
7.23203569591e-54
7.23409478344e-54
7.29685613696e-54
3.84187416054e-19
0.0690884499295
0.231856226879
0.206230913776
0.161551946842
0.131987642858
0.117152282261
0.110701850864
0.108094270662
0.106882005588
0.106048741129
0.105303688611
0.104587512311
0.103889149497
0.10320347117
0.102551879619
0.101889265128
0.101236745636
0.100592686411
0.0999539386836
0.099322281811
0.098715481866
0.0980908725537
0.0974702719781
0.096853554966
0.0962379422173
0.0956494600914
0.0950414875035
0.094436211723
0.0938386689919
0.0932470450064
0.0926619471338
0.092111242331
0.0915495557277
0.0910031712078
0.0904737285163
0.0899627582959
0.0894756773669
0.0890390556813
0.0886042031857
0.088200379004
0.0878302255692
0.0874951683287
0.0871977815481
0.0869392289918
0.0867220271471
0.0865463414093
0.08641135943
0.0863454019703
0.0862427989613
7.23199832545e-54
7.23199832545e-54
7.23199832545e-54
7.23199832545e-54
7.23199832545e-54
7.23199832545e-54
7.23199832545e-54
7.23199832546e-54
7.23199832546e-54
7.23199832546e-54
7.23199832546e-54
7.23199832546e-54
7.23199832546e-54
7.23199832547e-54
7.23199832605e-54
7.23199835888e-54
7.23200024169e-54
7.2321044027e-54
7.23793817816e-54
7.35106812807e-54
1.36033242358e-18
0.208846527788
0.23210379508
0.195111721149
0.154320882333
0.12956345721
0.117717916316
0.112642964486
0.110484924429
0.109354377866
0.108468536012
0.107649489935
0.106859837071
0.106110215581
0.105356751364
0.104618214094
0.103892994157
0.103177715944
0.102495966967
0.101799775569
0.101111149841
0.100429899297
0.099777338718
0.099105441651
0.0984406352332
0.0977785817322
0.0971223206144
0.0964941854807
0.0958485538313
0.0952104228224
0.0945824703887
0.0939625249244
0.0933805796567
0.0927862602389
0.0922104966477
0.0916544712416
0.0911202542582
0.0906085645983
0.0901501542887
0.0896967557187
0.0892763078095
0.0888906554709
0.0885416160389
0.088231597948
0.0879635457772
0.0877374717599
0.0875545663421
0.0874150093694
0.0873469363518
0.0872704866315
7.23199832534e-54
7.23199832534e-54
7.23199832535e-54
7.23199832535e-54
7.23199832535e-54
7.23199832535e-54
7.23199832535e-54
7.23199832535e-54
7.23199832535e-54
7.23199832535e-54
7.23199832535e-54
7.23199832536e-54
7.23199832536e-54
7.23199832539e-54
7.23199832724e-54
7.23199843352e-54
7.23200451193e-54
7.23233783739e-54
7.25075000925e-54
7.51213956011e-54
2.41883720927e-07
0.230935690665
0.228267444167
0.184087397036
0.148171601101
0.128118484062
0.118764502221
0.11477206803
0.112987091186
0.111889544944
0.110951069676
0.110081594137
0.109218998398
0.108375410514
0.10755150499
0.106765902771
0.105975853288
0.105198740215
0.104435423787
0.103703273736
0.102959503957
0.102223211566
0.101496351289
0.100796660258
0.100082681868
0.0993747725647
0.0986744356222
0.097980513969
0.0973180422177
0.0966398424121
0.0959734314639
0.0953203750472
0.0946808028376
0.0940810762939
0.093476254025
0.0928933043196
0.0923336246865
0.0917993408614
0.0913207468721
0.0908486187827
0.0904111438178
0.0900103378367
0.0896485589759
0.0893278703255
0.0890496213914
0.0888139346869
0.0886504269965
0.0885056391994
0.0884072654744
0.0883308959964
7.23199832525e-54
7.23199832525e-54
7.23199832525e-54
7.23199832526e-54
7.23199832526e-54
7.23199832526e-54
7.23199832526e-54
7.23199832526e-54
7.23199832526e-54
7.23199832526e-54
7.23199832526e-54
7.23199832526e-54
7.23199832527e-54
7.23199832536e-54
7.23199833063e-54
7.23199862475e-54
7.23201495364e-54
7.23289310151e-54
7.27834792673e-54
3.97157686471e-20
0.0126751147645
0.231600305984
0.216966590911
0.173945720912
0.14352064229
0.127555744257
0.120304296163
0.117162158375
0.115590866508
0.114480654013
0.113497352154
0.112535696067
0.111599039054
0.110707373531
0.109815005293
0.10894348484
0.108087311332
0.107269714016
0.106443689335
0.105631353308
0.104852850473
0.104063386293
0.103283871747
0.102512538713
0.101773618604
0.101019898461
0.100274438162
0.0995382807467
0.0988365243851
0.0981201951906
0.0974183849915
0.0967299175735
0.0960814398942
0.0954276534825
0.0947946305326
0.0941847869137
0.093599416768
0.0930435780696
0.0925461888473
0.0920541715612
0.0915996061889
0.0911846302582
0.0908100379624
0.0904780682683
0.0901895077238
0.0899734337343
0.089776305056
0.0896271178348
0.0895253627788
0.0894488787935
7.23199832517e-54
7.23199832517e-54
7.23199832517e-54
7.23199832517e-54
7.23199832518e-54
7.23199832518e-54
7.23199832518e-54
7.23199832518e-54
7.23199832518e-54
7.23199832518e-54
7.23199832518e-54
7.23199832518e-54
7.23199832519e-54
7.23199832557e-54
7.23199834703e-54
7.23199956274e-54
7.23206625132e-54
7.23573301143e-54
7.32147117448e-54
7.61526874433e-19
0.127619230801
0.231954595914
0.204542319452
0.165121572982
0.140184811844
0.127830301556
0.122248213164
0.119723100064
0.118294282647
0.117137560618
0.116061473521
0.11502379342
0.114033847586
0.113049975809
0.112111267519
0.111172284832
0.11025394273
0.109373916116
0.108488795933
0.107619323149
0.1067643583
0.105942453414
0.105110385587
0.104289970137
0.103503373646
0.102702365894
0.101914504567
0.101137689759
0.100395387886
0.0996430237298
0.0989056112888
0.098182035676
0.09750466627
0.0968204910523
0.0961603469544
0.0955253707812
0.0949171417705
0.0943648230704
0.0938200362714
0.0933116769337
0.0928415633225
0.0924118038792
0.0920233019676
0.0917074925069
0.0914092270731
0.0911586083226
0.0909558749132
0.0908016769505
0.0906961820994
0.0906189287418
7.2319983251e-54
7.2319983251e-54
7.2319983251e-54
7.2319983251e-54
7.2319983251e-54
7.2319983251e-54
7.2319983251e-54
7.23199832511e-54
7.23199832511e-54
7.23199832511e-54
7.23199832511e-54
7.23199832511e-54
7.23199832514e-54
7.23199832662e-54
7.23199840977e-54
7.23200306935e-54
7.23225469122e-54
7.24597492553e-54
7.45916713862e-54
1.0280432876e-10
0.230343793636
0.231611632363
0.192106879914
0.157779228911
0.138158492931
0.128749602406
0.124469994339
0.122392636744
0.121010620109
0.119798632654
0.118666325815
0.117552485581
0.116468608228
0.115433294724
0.114405570465
0.113421607244
0.112441484804
0.111479604622
0.110559273816
0.109631491333
0.108722098839
0.107849310572
0.106965922138
0.106096907853
0.105263329915
0.104419324708
0.103588136137
0.102768202902
0.101989341549
0.101200523375
0.100428676112
0.0996731892551
0.0989661936081
0.0982547162815
0.0975664615889
0.096906677054
0.0963032927266
0.0957046931214
0.0951418892693
0.0946168929503
0.0941317302917
0.093687642272
0.0933143680413
0.0929594812959
0.0926525774776
0.0923943317794
0.0921855408969
0.0920266112943
0.0919174420681
0.0918393879763
7.23199832503e-54
7.23199832503e-54
7.23199832503e-54
7.23199832504e-54
7.23199832504e-54
7.23199832504e-54
7.23199832504e-54
7.23199832504e-54
7.23199832504e-54
7.23199832504e-54
7.23199832504e-54
7.23199832505e-54
7.23199832515e-54
7.23199833064e-54
7.23199863343e-54
7.23201520726e-54
7.23288632206e-54
7.2778091171e-54
1.05345297257e-20
0.00816896476534
0.231530099571
0.220617631405
0.180562740166
0.15228387179
0.137234420199
0.130177169905
0.12690832668
0.12510643783
0.123724252195
0.122470895219
0.12124721448
0.120080075465
0.118927327913
0.117824871141
0.116730690738
0.115662788088
0.11464029846
0.113618367607
0.112639968806
0.111659522686
0.110695548415
0.109771701928
0.108841435327
0.107923720449
0.107046907004
0.106160123723
0.105286104118
0.104455132933
0.103612300021
0.102787766702
0.101982395261
0.101223456428
0.100459852234
0.099721207924
0.0990095131164
0.0983536061458
0.097701956772
0.0970850070348
0.0965049200935
0.095963365129
0.0954922182852
0.0950351070306
0.0946241667476
0.0942604051319
0.0939453980475
0.0936798868975
0.0934649264495
0.0933012760102
0.0931878722242
0.0931367296873
7.23199832497e-54
7.23199832497e-54
7.23199832498e-54
7.23199832498e-54
7.23199832498e-54
7.23199832498e-54
7.23199832498e-54
7.23199832498e-54
7.23199832498e-54
7.23199832498e-54
7.23199832498e-54
7.23199832499e-54
7.23199832549e-54
7.23199835323e-54
7.23199989496e-54
7.23208289486e-54
7.23656128576e-54
7.33409261175e-54
9.06008323347e-19
0.144567436872
0.231954404524
0.20662237923
0.170911162145
0.148583056826
0.137406672393
0.132129748618
0.129530032472
0.12786910988
0.126447965866
0.125107951755
0.123830650046
0.12259469845
0.121373073473
0.120207303179
0.119048759772
0.117920045381
0.116837635554
0.115760263204
0.114725500039
0.113691543858
0.112675464928
0.111704043847
0.110725300038
0.109788797001
0.108843531068
0.107915479732
0.107003561818
0.106134202708
0.105258043049
0.104401003696
0.10359040874
0.102773373155
0.101983375951
0.101218937316
0.100512769794
0.0998071177768
0.0991365906991
0.0984999636453
0.0979332716916
0.0973767939071
0.0968637803222
0.096395885449
0.0959749803985
0.095601666728
0.0953090625248
0.0950352687674
0.0948143955808
0.0946459017095
0.0945293928617
0.094449937682
7.23199832492e-54
7.23199832492e-54
7.23199832492e-54
7.23199832492e-54
7.23199832492e-54
7.23199832492e-54
7.23199832493e-54
7.23199832493e-54
7.23199832493e-54
7.23199832493e-54
7.23199832493e-54
7.23199832497e-54
7.23199832743e-54
7.23199846346e-54
7.23200596807e-54
7.23240444299e-54
7.25354126475e-54
7.54710817437e-54
2.8458546452e-07
0.230881726233
0.230497328961
0.193153987775
0.1632513236
0.146483825711
0.138314118656
0.134379084242
0.132223765224
0.130601456143
0.129145073612
0.127731497926
0.126385134635
0.125060766241
0.123794975612
0.122543420959
0.121346462915
0.120160497368
0.11902162476
0.117889605501
0.116804389466
0.115718511048
0.114679260078
0.11363665109
0.112612332067
0.111632489251
0.110644980038
0.109678078215
0.108755978622
0.107827062876
0.10691602545
0.106055925025
0.105189511995
0.104345809106
0.103558421859
0.102770366552
0.102013605543
0.10128887035
0.100629812996
0.0999770225988
0.0993649262143
0.0987952904391
0.0982704427156
0.0977912213318
0.0973913448255
0.0970097081796
0.0966794976653
0.0964010083143
0.0961752461303
0.096002625947
0.09588323981
0.0958040748681
7.23199832487e-54
7.23199832487e-54
7.23199832487e-54
7.23199832487e-54
7.23199832487e-54
7.23199832488e-54
7.23199832488e-54
7.23199832488e-54
7.23199832488e-54
7.23199832488e-54
7.23199832488e-54
7.23199832512e-54
7.23199833815e-54
7.23199906604e-54
7.23203874546e-54
7.23416781915e-54
7.30150992488e-54
3.23341009253e-19
0.0500154106468
0.231718917688
0.216857446117
0.181500955507
0.158016649559
0.145803820401
0.139845902008
0.136852977412
0.134914616406
0.133302949925
0.13176802264
0.130307513268
0.12889617693
0.127506636104
0.126178532607
0.124867506759
0.123612586057
0.122393159457
0.121181579953
0.119996706458
0.11886321916
0.117729823028
0.116645195799
0.115558617711
0.114518375261
0.113473704576
0.112449395679
0.111471390174
0.110487609338
0.109523525578
0.108610686793
0.107693334182
0.106801111932
0.105962065746
0.1051231245
0.104314807897
0.103538671484
0.10282652455
0.10211992148
0.101452586698
0.100827343319
0.100278718775
0.0997421059411
0.0992537250297
0.0988144091513
0.0984257647937
0.0980890303245
0.097804751256
0.0976068160223
0.0974290370907
0.0973056481032
0.0972249741526
7.23199832483e-54
7.23199832483e-54
7.23199832483e-54
7.23199832483e-54
7.23199832483e-54
7.23199832483e-54
7.23199832483e-54
7.23199832483e-54
7.23199832483e-54
7.23199832483e-54
7.23199832486e-54
7.23199832633e-54
7.23199840712e-54
7.23200285074e-54
7.23223831899e-54
7.24467731327e-54
7.44447216904e-54
6.20432023003e-11
0.229183169879
0.232100182985
0.202042496493
0.172288104103
0.154915411732
0.146185091039
0.141864705977
0.139429249453
0.137590207167
0.135939811915
0.134343528426
0.132820487408
0.131345549816
0.129898987362
0.128513539355
0.127167348516
0.125836953055
0.124565542424
0.12330287051
0.122096694882
0.12089242561
0.119740757968
0.118589182776
0.117488575095
0.116384872011
0.115301630746
0.114269727561
0.11323211775
0.112216154068
0.111250958213
0.110281990299
0.109338558684
0.108450507397
0.107559883376
0.106700126648
0.105902618713
0.10510867879
0.104350725196
0.103629978542
0.102984722548
0.102347249375
0.101755533288
0.101210879092
0.100714356525
0.100302408695
0.0999063145334
0.0995640158207
0.0992751412889
0.0990403419484
0.0988595642956
0.0987324112451
0.0986509167518
7.23199832478e-54
7.23199832479e-54
7.23199832479e-54
7.23199832479e-54
7.23199832479e-54
7.23199832479e-54
7.23199832479e-54
7.23199832479e-54
7.23199832479e-54
7.23199832479e-54
7.23199832496e-54
7.23199833369e-54
7.23199881079e-54
7.23202492554e-54
7.23342388289e-54
7.29106335374e-54
1.35336518268e-19
0.0203433590662
0.231569034573
0.222589229428
0.188862168908
0.165878192488
0.153505998714
0.14735564375
0.144124688883
0.14199526792
0.140189852393
0.138488928075
0.136835930122
0.135254299173
0.133725487243
0.132222025673
0.130782846937
0.129388655182
0.128011518376
0.126691490309
0.125384355532
0.124130912324
0.122911471604
0.121694124347
0.120503376353