/*--------------------------------*- C++ -*----------------------------------*\
| =========                 |                                                 |
| \\      /  F ield         | foam-extend: Open Source CFD                    |
|  \\    /   O peration     | Version:     4.1                                |
|   \\  /    A nd           | Web:         http://www.foam-extend.org         |
|    \\/     M anipulation  |                                                 |
\*---------------------------------------------------------------------------*/
FoamFile
{
    version     2.0;
    format      ascii;
    class       volScalarField;
    location    "0.0006";
    object      O2;
}
// * * * * * * * * * * * * * * * * * * * * * * * * * * * * * * * * * * * * * //

dimensions      [0 0 0 0 0 0 0];

internalField   nonuniform List<scalar> 
8400
(
0.232918
0.232918
0.232918
0.232918
0.232918
0.232918
0.232918
0.232918
0.232918
0.232918
0.232918
0.232918
0.232918
0.232918
0.232918
0.232918
0.232918
0.232918
0.232918
0.232918
0.232918
0.232918
0.232918
0.232918
0.232917369177
0.0370569553011
5.08215448293e-06
1.42383347482e-07
7.31857314753e-08
5.26893939592e-08
4.61924603225e-08
4.41258987074e-08
4.33367224557e-08
4.29072030826e-08
4.26082873601e-08
4.23446838429e-08
4.21009953646e-08
4.18692371208e-08
4.16445972801e-08
4.14242995236e-08
4.12066214923e-08
4.09867790236e-08
4.07892250308e-08
4.05598825742e-08
4.03241014281e-08
4.00789980251e-08
3.9823791349e-08
3.95575156208e-08
3.92786549562e-08
3.89891223472e-08
3.86876434966e-08
3.83743041048e-08
3.80509828432e-08
3.7717250349e-08
3.7376077439e-08
3.70549844396e-08
3.67074996914e-08
3.63597524464e-08
3.60169856671e-08
3.5682025385e-08
3.53623117842e-08
3.50583757379e-08
3.47772674775e-08
3.45205188109e-08
3.42929845619e-08
3.4098113897e-08
3.39384073377e-08
3.38164790709e-08
3.3734910958e-08
3.36738991194e-08
0.232918
0.232918
0.232918
0.232918
0.232918
0.232918
0.232918
0.232918
0.232918
0.232918
0.232918
0.232918
0.232918
0.232918
0.232918
0.232918
0.232918
0.232918
0.232918
0.232918
0.232918
0.232918
0.232918
0.232918
0.232232715874
4.29460881048e-05
3.47905275716e-07
1.00823037558e-07
6.03452157466e-08
4.72924079188e-08
4.34164954979e-08
4.22574211981e-08
4.18516851159e-08
4.16494189881e-08
4.15060215171e-08
4.13640692083e-08
4.12166864749e-08
4.10611991828e-08
4.08970330171e-08
4.07256957363e-08
4.05441002981e-08
4.03514893016e-08
4.01484512757e-08
3.99328499819e-08
3.97046328227e-08
3.94654892147e-08
3.92120113545e-08
3.89448793737e-08
3.86635397593e-08
3.8369145919e-08
3.8063364574e-08
3.77454313426e-08
3.74180416419e-08
3.70813403844e-08
3.67382826292e-08
3.63920669671e-08
3.60463846279e-08
3.57031961492e-08
3.53659314714e-08
3.50405857658e-08
3.47296166445e-08
3.44367675245e-08
3.41654331437e-08
3.39198144025e-08
3.37045705987e-08
3.35204680604e-08
3.33700951434e-08
3.32566626974e-08
3.31802141452e-08
3.31246477841e-08
0.232918
0.232918
0.232918
0.232918
0.232918
0.232918
0.232918
0.232918
0.232918
0.232918
0.232918
0.232918
0.232918
0.232918
0.232918
0.232918
0.232918
0.232918
0.232918
0.232918
0.232918
0.232918
0.232918
0.232917745855
0.136268610707
9.84527720025e-06
1.67109565595e-07
7.73299810961e-08
5.23244184453e-08
4.44319374576e-08
4.21500643008e-08
4.14593637953e-08
4.12403389928e-08
4.11046172765e-08
4.10055246332e-08
4.09001449791e-08
4.07863404847e-08
4.06609399504e-08
4.0522984614e-08
4.03721200661e-08
4.01829880292e-08
4.00051669907e-08
3.98127005185e-08
3.96076685524e-08
3.93868894772e-08
3.91505901419e-08
3.88991059104e-08
3.86314343617e-08
3.83516178373e-08
3.80569881755e-08
3.77496381743e-08
3.74301041474e-08
3.71027120397e-08
3.67678117025e-08
3.64288888959e-08
3.61111134716e-08
3.57705536297e-08
3.54335995297e-08
3.51071774955e-08
3.47916271706e-08
3.44917327181e-08
3.42098245896e-08
3.39515216822e-08
3.37190030127e-08
3.3513999368e-08
3.33406892886e-08
3.31996810332e-08
3.30924314933e-08
3.30200825728e-08
3.29690435202e-08
0.232918
0.232918
0.232918
0.232918
0.232918
0.232918
0.232918
0.232918
0.232918
0.232918
0.232918
0.232918
0.232918
0.232918
0.232918
0.232918
0.232918
0.232918
0.232918
0.232918
0.232918
0.232918
0.232918
0.232912479345
0.000196207063352
9.36756224526e-07
1.17566551905e-07
6.474254633e-08
4.83412347468e-08
4.33986054916e-08
4.19608483826e-08
4.14873055454e-08
4.13080590166e-08
4.11975607753e-08
4.10878245677e-08
4.09698579422e-08
4.08424571263e-08
4.07051615443e-08
4.05558248932e-08
4.03935891338e-08
4.02189284447e-08
4.0004416845e-08
3.98006968118e-08
3.95844350338e-08
3.93522053828e-08
3.9104199616e-08
3.88410951103e-08
3.85619736268e-08
3.8271062004e-08
3.79658889282e-08
3.76487710437e-08
3.73471519918e-08
3.70118284086e-08
3.66698626856e-08
3.63265431067e-08
3.59824606017e-08
3.56414920989e-08
3.53054863209e-08
3.49817644855e-08
3.46699282874e-08
3.43749521598e-08
3.40988110878e-08
3.3846726347e-08
3.36205260505e-08
3.34216567101e-08
3.32536335133e-08
3.31173834271e-08
3.30138482693e-08
3.29439856375e-08
3.28958911713e-08
0.232918
0.232918
0.232918
0.232918
0.232918
0.232918
0.232918
0.232918
0.232918
0.232918
0.232918
0.232918
0.232918
0.232918
0.232918
0.232918
0.232918
0.232918
0.232918
0.232918
0.232918
0.232918
0.232918
0.228870095657
2.84682321712e-05
2.75174613258e-07
9.42213639426e-08
5.83075267179e-08
4.68275712764e-08
4.34784601032e-08
4.24510488633e-08
4.20984006237e-08
4.18986956825e-08
4.17532297057e-08
4.16064702266e-08
4.1453129841e-08
4.12921443494e-08
4.11210891926e-08
4.09388102849e-08
4.07475010453e-08
4.0543327599e-08
4.0325667741e-08
4.00949088028e-08
3.9849245737e-08
3.95898527114e-08
3.93171058083e-08
3.90291457826e-08
3.87277509641e-08
3.84119204861e-08
3.80871094504e-08
3.7750503368e-08
3.74069139981e-08
3.70554468161e-08
3.67002361337e-08
3.63431895737e-08
3.59898502333e-08
3.56404408794e-08
3.52986770582e-08
3.49686288326e-08
3.46541214363e-08
3.43569198034e-08
3.4080407267e-08
3.38516492247e-08
3.36252078506e-08
3.34267441738e-08
3.32582710009e-08
3.31225863785e-08
3.30201684232e-08
3.29509928083e-08
3.29043319325e-08
0.232918
0.232918
0.232918
0.232918
0.232918
0.232918
0.232918
0.232918
0.232918
0.232918
0.232918
0.232918
0.232918
0.232918
0.232918
0.232918
0.232918
0.232918
0.232918
0.232918
0.232918
0.232918
0.232917821395
0.160258468577
1.16918282984e-05
1.81208936957e-07
8.15179268271e-08
5.49925899468e-08
4.66809950693e-08
4.42769018494e-08
4.34690274067e-08
4.31430266236e-08
4.28970268761e-08
4.26931489905e-08
4.24917576492e-08
4.22857662806e-08
4.2073343354e-08
4.18547210228e-08
4.16267312644e-08
4.13890459381e-08
4.11406057135e-08
4.0879734169e-08
4.0609480231e-08
4.03254837027e-08
4.00285577382e-08
3.97180081183e-08
3.93956072527e-08
3.90616382943e-08
3.87157891668e-08
3.83592088157e-08
3.79954532888e-08
3.76252177484e-08
3.72514070947e-08
3.6874473422e-08
3.64987118996e-08
3.61260671994e-08
3.57857808764e-08
3.54312702575e-08
3.50904628133e-08
3.47653553674e-08
3.44594386032e-08
3.41758600075e-08
3.39186682756e-08
3.36877730839e-08
3.34863802496e-08
3.33158924588e-08
3.31776364978e-08
3.30727431561e-08
3.300191077e-08
3.29556801577e-08
0.232918
0.232918
0.232918
0.232918
0.232918
0.232918
0.232918
0.232918
0.232918
0.232918
0.232918
0.232918
0.232918
0.232918
0.232918
0.232918
0.232918
0.232918
0.232918
0.232918
0.232918
0.232918
0.232917340772
0.0304297505874
4.80221927103e-06
1.40652582215e-07
7.34285002228e-08
5.33648000467e-08
4.73638578137e-08
4.55635034408e-08
4.48994098726e-08
4.45359861872e-08
4.42261170915e-08
4.39536033824e-08
4.36847897614e-08
4.3412842535e-08
4.31376271371e-08
4.28565563089e-08
4.25702335798e-08
4.22770869557e-08
4.19752010489e-08
4.16645190283e-08
4.13425807736e-08
4.10099581549e-08
4.06655557016e-08
4.03121858398e-08
3.9946871274e-08
3.95710131883e-08
3.91862833011e-08
3.87942923745e-08
3.84212387242e-08
3.80179786482e-08
3.76127772644e-08
3.72072820409e-08
3.68064637836e-08
3.64110858945e-08
3.60237316946e-08
3.56511125908e-08
3.52927304132e-08
3.49541336572e-08
3.46356025564e-08
3.43415656121e-08
3.40730672769e-08
3.38347854612e-08
3.36518064877e-08
3.34755508607e-08
3.3333071793e-08
3.32253688223e-08
3.3152560557e-08
3.31049213795e-08
0.232918
0.232918
0.232918
0.232918
0.232918
0.232918
0.232918
0.232918
0.232918
0.232918
0.232918
0.232918
0.232918
0.232918
0.232918
0.232918
0.232918
0.232918
0.232918
0.232918
0.232918
0.232918
0.232909392175
0.000123016319767
7.22407986931e-07
1.1812932131e-07
6.83494930628e-08
5.30793723206e-08
4.85360048623e-08
4.7157745347e-08
4.65577903431e-08
4.61836360535e-08
4.58392011377e-08
4.5470598923e-08
4.51300106996e-08
4.47884604735e-08
4.44436415633e-08
4.4094732929e-08
4.37426595096e-08
4.33850032919e-08
4.30205985045e-08
4.26474954062e-08
4.2268807753e-08
4.18800951914e-08
4.15101008551e-08
4.11035090328e-08
4.06879081942e-08
4.02650924754e-08
3.98353477096e-08
3.93998743875e-08
3.89599977931e-08
3.85195770767e-08
3.80799500111e-08
3.76420422554e-08
3.72093768672e-08
3.67861379775e-08
3.63740849249e-08
3.60019023441e-08
3.56223962372e-08
3.52645610875e-08
3.49291792436e-08
3.46197774167e-08
3.43384617388e-08
3.40895760362e-08
3.38722309876e-08
3.36887603319e-08
3.35409916274e-08
3.34287984299e-08
3.33527841007e-08
3.33037998853e-08
0.232918
0.232918
0.232918
0.232918
0.232918
0.232918
0.232918
0.232918
0.232918
0.232918
0.232918
0.232918
0.232918
0.232918
0.232918
0.232918
0.232918
0.232918
0.232918
0.232918
0.232918
0.232918
0.231073738676
3.50603432341e-05
3.22766130201e-07
1.03780610244e-07
6.54891426965e-08
5.3709551857e-08
5.03595154478e-08
4.91652280709e-08
4.85626052677e-08
4.81107186354e-08
4.76812441082e-08
4.72567498904e-08
4.68364072975e-08
4.64160293863e-08
4.59947363232e-08
4.55714048526e-08
4.51445280696e-08
4.47163284345e-08
4.42824584641e-08
4.38420667297e-08
4.33982379463e-08
4.29472631787e-08
4.24901059011e-08
4.20254908479e-08
4.15536212823e-08
4.10787423139e-08
4.05981030434e-08
4.01134489067e-08
3.96296556848e-08
3.91454804824e-08
3.86907111089e-08
3.821591423e-08
3.77486533822e-08
3.72918534309e-08
3.68508629367e-08
3.64264073314e-08
3.60210778414e-08
3.56414952623e-08
3.52867646059e-08
3.4961038321e-08
3.46650267983e-08
3.44270721036e-08
3.41976061112e-08
3.40044916146e-08
3.38492328532e-08
3.37312742379e-08
3.36512033038e-08
3.36002824127e-08
0.232918
0.232918
0.232918
0.232918
0.232918
0.232918
0.232918
0.232918
0.232918
0.232918
0.232918
0.232918
0.232918
0.232918
0.232918
0.232918
0.232918
0.232918
0.232918
0.232918
0.232918
0.232917939239
0.198632654473
1.67128378495e-05
2.20578980875e-07
9.38642772783e-08
6.42299885412e-08
5.50751448338e-08
5.25600268551e-08
5.15617219469e-08
5.0883089309e-08
5.03283302603e-08
4.97952938198e-08
4.92709307384e-08
4.87513954026e-08
4.82390601339e-08
4.77286224684e-08
4.72182462891e-08
4.6711249163e-08
4.62029167037e-08
4.56921746842e-08
4.51784141148e-08
4.46617436163e-08
4.41413103237e-08
4.36160587583e-08
4.30882547448e-08
4.25568971781e-08
4.20489240048e-08
4.15138145642e-08
4.09770016362e-08
4.04407425699e-08
3.99100163351e-08
3.93842053387e-08
3.88672052583e-08
3.83618118902e-08
3.78712135835e-08
3.74217294698e-08
3.6967165965e-08
3.65365250562e-08
3.61306774802e-08
3.5752308027e-08
3.54068172423e-08
3.50936687944e-08
3.48163899312e-08
3.45753836393e-08
3.43717147721e-08
3.42076104807e-08
3.40828695734e-08
3.39979430101e-08
3.39444033168e-08
0.232918
0.232918
0.232918
0.232918
0.232918
0.232918
0.232918
0.232918
0.232918
0.232918
0.232918
0.232918
0.232918
0.232918
0.232918
0.232918
0.232918
0.232918
0.232918
0.232918
0.232918
0.232917650421
0.109976161036
8.82999580326e-06
1.73412359739e-07
8.69850615713e-08
6.39698228711e-08
5.72446784345e-08
5.52592002104e-08
5.42630846017e-08
5.35089289779e-08
5.28298226648e-08
5.21713562447e-08
5.15298941197e-08
5.08993411975e-08
5.02805140776e-08
4.96696312771e-08
4.90639256819e-08
4.84610255011e-08
4.7863925996e-08
4.72670643567e-08
4.66704500648e-08
4.61024648805e-08
4.55069605181e-08
4.49088623463e-08
4.43098413083e-08
4.37114908982e-08
4.31139485389e-08
4.25164175397e-08
4.19227686651e-08
4.13339470356e-08
4.07771145537e-08
4.02041473309e-08
3.9643222645e-08
3.90953015195e-08
3.85638592307e-08
3.80540015221e-08
3.75664727498e-08
3.71047638855e-08
3.66989375718e-08
3.62980914659e-08
3.59299438937e-08
3.55977187351e-08
3.53017535534e-08
3.50471168031e-08
3.48324349026e-08
3.46585211244e-08
3.45269481229e-08
3.44374524555e-08
3.43819037318e-08
0.232918
0.232918
0.232918
0.232918
0.232918
0.232918
0.232918
0.232918
0.232918
0.232918
0.232918
0.232918
0.232918
0.232918
0.232918
0.232918
0.232918
0.232918
0.232918
0.232918
0.232918
0.232916827294
0.00231748235186
3.44759090898e-06
1.44481818196e-07
8.22614759486e-08
6.47478326646e-08
5.98605233558e-08
5.82867337674e-08
5.72957738011e-08
5.64154678865e-08
5.55972825367e-08
5.48026573745e-08
5.40296674118e-08
5.32761265056e-08
5.25371429267e-08
5.18102598411e-08
5.11259424412e-08
5.04211863036e-08
4.97220805921e-08
4.90307903004e-08
4.83430278607e-08
4.76591478154e-08
4.69798958316e-08
4.63028499072e-08
4.56265292864e-08
4.49842895546e-08
4.43171517764e-08
4.36554642914e-08
4.2998955787e-08
4.23501037885e-08
4.17128516126e-08
4.10881833035e-08
4.04770487121e-08
3.99129199945e-08
3.93413893796e-08
3.87927193842e-08
3.82689917298e-08
3.77767614845e-08
3.7315734574e-08
3.68885135326e-08
3.64973618891e-08
3.61716033591e-08
3.58592351776e-08
3.5587841018e-08
3.53602520561e-08
3.51769587341e-08
3.50372910292e-08
3.49416250965e-08
3.4882623285e-08
0.232918
0.232918
0.232918
0.232918
0.232918
0.232918
0.232918
0.232918
0.232918
0.232918
0.232918
0.232918
0.232918
0.232918
0.232918
0.232918
0.232918
0.232918
0.232918
0.232918
0.232918
0.232797357882
7.09069447025e-05
5.74683630431e-07
1.25168665113e-07
7.96451070234e-08
6.64376202425e-08
6.29977774077e-08
6.16295739263e-08
6.05820590188e-08
5.95675011956e-08
5.86038760557e-08
5.76667043166e-08
5.67547486622e-08
5.58943463256e-08
5.50250070447e-08
5.41752508997e-08
5.33390090629e-08
5.25196383655e-08
5.17110328953e-08
5.09150128285e-08
5.01294119306e-08
4.9380868823e-08
4.86090919514e-08
4.78446185993e-08
4.70885445028e-08
4.63385715662e-08
4.55959077642e-08
4.4863218046e-08
4.41690397213e-08
4.34587685745e-08
4.27626350521e-08
4.20810756192e-08
4.14204067121e-08
4.07813533689e-08
4.01649483111e-08
3.96045294149e-08
3.90433801027e-08
3.8517202839e-08
3.80259484515e-08
3.75709016574e-08
3.71546385885e-08
3.67806963581e-08
3.6450152784e-08
3.61641359346e-08
3.59504891046e-08
3.57548433702e-08
3.56060549505e-08
3.55050208602e-08
3.54435574673e-08
0.232918
0.232918
0.232918
0.232918
0.232918
0.232918
0.232918
0.232918
0.232918
0.232918
0.232918
0.232918
0.232918
0.232918
0.232918
0.232918
0.232918
0.232918
0.232918
0.232918
0.232918
0.223463399729
2.57204932746e-05
2.9552996878e-07
1.12500195117e-07
7.85991901626e-08
6.91726561312e-08
6.66821715477e-08
6.53839506513e-08
6.4203206282e-08
6.30076039272e-08
6.187052451e-08
6.08005561296e-08
5.97272489675e-08
5.868751288e-08
5.76736003493e-08
5.66871133995e-08
5.57218527083e-08
5.48092533004e-08
5.38821729745e-08
5.29713579107e-08
5.20760596152e-08
5.11954511773e-08
5.03254426587e-08
4.94685781753e-08
4.86534371205e-08
4.7819751294e-08
4.69993669618e-08
4.61903165246e-08
4.53971948474e-08
4.46211441854e-08
4.38908090044e-08
4.31522021458e-08
4.24374502263e-08
4.17466039832e-08
4.10839390046e-08
4.04529089752e-08
3.98823251515e-08
3.93204980983e-08
3.87973963222e-08
3.83136796577e-08
3.78714504568e-08
3.74756152825e-08
3.71247641521e-08
3.68227707773e-08
3.6568176426e-08
3.63620700176e-08
3.62335189579e-08
3.61255808687e-08
3.60604087419e-08
0.232918
0.232918
0.232918
0.232918
0.232918
0.232918
0.232918
0.232918
0.232918
0.232918
0.232918
0.232918
0.232918
0.232918
0.232918
0.232918
0.232918
0.232918
0.232918
0.232918
0.232917774905
0.150375367374
1.21034913492e-05
2.09730881425e-07
1.04011286929e-07
7.93203418337e-08
7.28141134627e-08
7.09424136693e-08
6.9563566027e-08
6.81522307457e-08
6.67704969056e-08
6.54329506475e-08
6.41398909408e-08
6.28904732805e-08
6.16803625755e-08
6.05430523253e-08
5.94037227698e-08
5.82951758087e-08
5.72154498049e-08
5.61582943083e-08
5.51277030314e-08
5.41480660298e-08
5.31552927181e-08
5.21809396832e-08
5.12250512075e-08
5.02838349049e-08
4.93931030732e-08
4.84880139124e-08
4.75989885529e-08
4.67324320427e-08
4.58858717359e-08
4.50606348776e-08
4.42915695771e-08
4.35198341446e-08
4.27777819301e-08
4.20673631295e-08
4.13898712111e-08
4.07515696955e-08
4.01836333813e-08
3.96257338134e-08
3.91115384503e-08
3.86443218566e-08
3.82254972883e-08
3.78544770716e-08
3.75341677633e-08
3.72639869156e-08
3.70460595681e-08
3.68800683422e-08
3.67948303606e-08
3.66964940133e-08
0.232918
0.232918
0.232918
0.232918
0.232918
0.232918
0.232918
0.232918
0.232918
0.232918
0.232918
0.232918
0.232918
0.232918
0.232918
0.232918
0.232918
0.232918
0.232918
0.232918
0.232917182435
0.0143618160649
5.13479705487e-06
1.67525418698e-07
9.88818584553e-08
8.13094687575e-08
7.71649432777e-08
7.56669043065e-08
7.40483317427e-08
7.24057047106e-08
7.07789624235e-08
6.92117736509e-08
6.77092563101e-08
6.629694898e-08
6.49013074663e-08
6.35553550302e-08
6.22511824605e-08
6.0984786581e-08
5.97946620877e-08
5.85987337703e-08
5.74330290369e-08
5.6296724664e-08
5.52216688211e-08
5.4134587972e-08
5.30732047666e-08
5.20318614005e-08
5.10153628368e-08
5.00546365072e-08
4.90841536153e-08
4.81371214147e-08
4.72179051638e-08
4.63242531326e-08
4.54941460677e-08
4.46612188719e-08
4.38641987658e-08
4.31043190881e-08
4.23833809377e-08
4.17017956538e-08
4.10951400586e-08
4.05038267897e-08
3.99598255745e-08
3.94661259922e-08
3.90221919186e-08
3.86293830185e-08
3.82918290053e-08
3.80074422458e-08
3.77773054338e-08
3.76020184299e-08
3.75114131054e-08
3.74387660007e-08
0.232918
0.232918
0.232918
0.232918
0.232918
0.232918
0.232918
0.232918
0.232918
0.232918
0.232918
0.232918
0.232918
0.232918
0.232918
0.232918
0.232918
0.232918
0.232918
0.232918
0.232785904285
7.28970549772e-05
6.81997238897e-07
1.42258207999e-07
9.62283673488e-08
8.47160557958e-08
8.21331279711e-08
8.06376707947e-08
7.8802481486e-08
7.68951313993e-08
7.50173118807e-08
7.32478031463e-08
7.15201165949e-08
6.98577478106e-08
6.82616828332e-08
6.67615521688e-08
6.52814674166e-08
6.3847667978e-08
6.24640158352e-08
6.1154884335e-08
5.98502418759e-08
5.85798169775e-08
5.73453129637e-08
5.61736081178e-08
5.50011352803e-08
5.38554506887e-08
5.27395205752e-08
5.16536983779e-08
5.06301723187e-08
4.96017433206e-08
4.86054608841e-08
4.76429979152e-08
4.67156739411e-08
4.58553195187e-08
4.50027990207e-08
4.41915574113e-08
4.34225270437e-08
4.26980226812e-08
4.20532572731e-08
4.14268354305e-08
4.0852534987e-08
4.03308529124e-08
3.98627018502e-08
3.94507772116e-08
3.90940471398e-08
3.87938855209e-08
3.85813735447e-08
3.83956268676e-08
3.82670407963e-08
3.81904103842e-08
0.232918
0.232918
0.232918
0.232918
0.232918
0.232918
0.232918
0.232918
0.232918
0.232918
0.232918
0.232918
0.232918
0.232918
0.232918
0.232918
0.232918
0.232918
0.232918
0.23291797696
0.212355985958
2.24284524145e-05
3.02274319917e-07
1.27274352628e-07
9.65268520718e-08
8.94284636858e-08
8.77888193108e-08
8.60501477771e-08
8.38531090145e-08
8.16316229873e-08
7.95111288012e-08
7.74462761802e-08
7.54703972352e-08
7.36222364899e-08
7.18096819023e-08
7.0073537937e-08
6.84018282638e-08
6.68281485895e-08
6.52753561417e-08
6.37727820711e-08
6.23567050836e-08
6.09464011569e-08
5.95793525814e-08
5.82506636234e-08
5.69959664477e-08
5.57433422463e-08
5.45232320464e-08
5.33405965373e-08
5.22291702099e-08
5.11167353819e-08
5.00430219026e-08
4.90080764949e-08
4.80450352391e-08
4.70919762834e-08
4.61824212672e-08
4.53187559256e-08
4.45006282318e-08
4.37339292727e-08
4.30530972455e-08
4.23901008615e-08
4.17824311902e-08
4.12320043312e-08
4.07399774026e-08
4.03063115427e-08
3.99314001486e-08
3.9648181412e-08
3.93928163379e-08
3.91966986527e-08
3.90597387803e-08
3.89789648178e-08
0.232918
0.232918
0.232918
0.232918
0.232918
0.232918
0.232918
0.232918
0.232918
0.232918
0.232918
0.232918
0.232918
0.232918
0.232918
0.232918
0.232918
0.232918
0.232918
0.232917548459
0.0908308957435
9.11335248422e-06
2.10328396242e-07
1.1894648431e-07
9.91204636448e-08
9.53873713248e-08
9.3994266729e-08
9.17904061237e-08
8.92285849731e-08
8.66500127347e-08
8.41802613748e-08
8.18287644936e-08
7.96273216275e-08
7.74904793032e-08
7.54918410568e-08
7.35390498356e-08
7.16668869625e-08
6.99063616226e-08
6.81756824074e-08
6.65075292657e-08
6.49004702205e-08
6.33804796416e-08
6.18769051645e-08
6.0420884213e-08
5.90472327814e-08
5.76770539422e-08
5.63539712472e-08
5.50727035863e-08
5.38678377846e-08
5.26713861434e-08
5.15174895439e-08
5.04065734619e-08
4.93792647951e-08
4.83615984872e-08
4.73938489629e-08
4.64772324308e-08
4.56130674539e-08
4.48352671422e-08
4.40805787101e-08
4.33836027503e-08
4.27459053037e-08
4.21679942734e-08
4.16499125637e-08
4.12274949352e-08
4.08340661382e-08
4.05029021345e-08
4.02342476517e-08
4.00284614472e-08
3.98840719979e-08
3.97977594172e-08
0.232918
0.232918
0.232918
0.232918
0.232918
0.232918
0.232918
0.232918
0.232918
0.232918
0.232918
0.232918
0.232918
0.232918
0.232918
0.232918
0.232918
0.232918
0.232918
0.232909332711
0.000151439757811
1.82965157097e-06
1.68853098832e-07
1.15274833842e-07
1.03909064293e-07
1.02186065426e-07
1.00495697926e-07
9.77684883702e-08
9.47684844752e-08
9.18214905675e-08
8.90592315361e-08
8.64034955315e-08
8.3879926254e-08
8.15219141674e-08
7.92399997483e-08
7.70978707945e-08
7.50165434701e-08
7.30206297374e-08
7.11460136571e-08
6.93022398932e-08
6.75329630138e-08
6.58656463951e-08
6.42158735235e-08
6.26286244846e-08
6.11304848245e-08
5.96482421396e-08
5.82160710835e-08
5.68320863607e-08
5.55354839182e-08
5.42524226155e-08
5.30178949564e-08
5.18322725708e-08
5.07378861703e-08
4.96580014204e-08
4.8629648261e-08
4.76607170963e-08
4.67839433488e-08
4.59298600898e-08
4.51358796907e-08
4.44034381457e-08
4.37335585999e-08
4.31270535252e-08
4.26188335638e-08
4.21412874045e-08
4.17292295149e-08
4.13826120271e-08
4.11013434005e-08
4.08842939233e-08
4.07316521902e-08
4.06406026079e-08
0.232918
0.232918
0.232918
0.232918
0.232918
0.232918
0.232918
0.232918
0.232918
0.232918
0.232918
0.232918
0.232918
0.232918
0.232918
0.232918
0.232918
0.232918
0.232917993891
0.217976103545
2.59412838561e-05
3.68908882511e-07
1.47324649895e-07
1.15996157561e-07
1.10413698789e-07
1.09490852897e-07
1.07201454861e-07
1.03884897704e-07
1.0043689549e-07
9.71599966229e-08
9.40122344677e-08
9.10800769012e-08
8.82655283562e-08
8.56367511403e-08
8.30983948033e-08
8.0683414161e-08
7.84210215122e-08
7.62199107178e-08
7.41540762135e-08
7.21357216445e-08
7.01965744605e-08
6.83741260713e-08
6.65835744054e-08
6.48557717206e-08
6.3236600979e-08
6.16356224102e-08
6.00920400736e-08
5.86487773132e-08
5.72188310179e-08
5.58468636898e-08
5.45324299736e-08
5.33126813217e-08
5.2110663566e-08
5.0966345515e-08
4.98832153274e-08
4.88979206644e-08
4.79376435726e-08
4.70404081236e-08
4.62077717941e-08
4.54405907838e-08
4.47762583532e-08
4.41416509447e-08
4.35748450801e-08
4.30768871857e-08
4.26461060393e-08
4.22842332833e-08
4.19890401538e-08
4.17622102206e-08
4.16014564924e-08
4.15390697679e-08
0.232918
0.232918
0.232918
0.232918
0.232918
0.232918
0.232918
0.232918
0.232918
0.232918
0.232918
0.232918
0.232918
0.232918
0.232918
0.232918
0.232918
0.232918
0.232917459808
0.0741112147399
9.06237965702e-06
2.30141459401e-07
1.37678389808e-07
1.20415465221e-07
1.18631813599e-07
1.17364711623e-07
1.14139155919e-07
1.10205649109e-07
1.06280220606e-07
1.02557892296e-07
9.90915505888e-08
9.58303652705e-08
9.27052756206e-08
8.97954477702e-08
8.69922010921e-08
8.43340631817e-08
8.18457780427e-08
7.94368128325e-08
7.71747110481e-08
7.49754497701e-08
7.28672202162e-08
7.08912040533e-08
6.89518054188e-08
6.71295817037e-08
6.53409515105e-08
6.36230096258e-08
6.19715216405e-08
6.04247257811e-08
5.89031722037e-08
5.74445528218e-08
5.60899253547e-08
5.47537855287e-08
5.34859853923e-08
5.22814603046e-08
5.11818861403e-08
5.01082182902e-08
4.91012555223e-08
4.81602692088e-08
4.73290909446e-08
4.65274042745e-08
4.57956756786e-08
4.51344871143e-08
4.45438926113e-08
4.402479054e-08
4.36142608399e-08
4.32348451369e-08
4.29263306177e-08
4.26882937066e-08
4.25185448305e-08
4.24151451462e-08
0.232918
0.232918
0.232918
0.232918
0.232918
0.232918
0.232918
0.232918
0.232918
0.232918
0.232918
0.232918
0.232918
0.232918
0.232918
0.232918
0.232918
0.232918
0.232763002604
7.80168419064e-05
1.13237266122e-06
1.82082128402e-07
1.35116962572e-07
1.27736877013e-07
1.27544096189e-07
1.25266181503e-07
1.2110869892e-07
1.16546887859e-07
1.12193691503e-07
1.08048529208e-07
1.04208174616e-07
1.00551894686e-07
9.7158401082e-08
9.39095539476e-08
9.0885136452e-08
8.79798512974e-08
8.52612984608e-08
8.26380483909e-08
8.0182961074e-08
7.77970175734e-08
7.55648371632e-08
7.33863776954e-08
7.12991858298e-08
6.93449118546e-08
6.74268655353e-08
6.55908020531e-08
6.38743602121e-08
6.21877989393e-08
6.05692405581e-08
5.90701806231e-08
5.75952632258e-08
5.61889348766e-08
5.48948176375e-08
5.3629736409e-08
5.24344551597e-08
5.13113777276e-08
5.03015759343e-08
4.93211570854e-08
4.8413418226e-08
4.75787144295e-08
4.68181028733e-08
4.61310856173e-08
4.55569432739e-08
4.50172008584e-08
4.45514331787e-08
4.41576804097e-08
4.38376042214e-08
4.35886138946e-08
4.34099714018e-08
4.32999596107e-08
0.232918
0.232918
0.232918
0.232918
0.232918
0.232918
0.232918
0.232918
0.232918
0.232918
0.232918
0.232918
0.232918
0.232918
0.232918
0.232918
0.232918
0.232917810308
0.17049020534
1.68376777968e-05
3.22431684573e-07
1.62270698415e-07
1.38991256955e-07
1.37401916311e-07
1.36790714128e-07
1.33130351745e-07
1.28008098248e-07
1.22906527169e-07
1.18029994602e-07
1.1351395283e-07
1.09294124415e-07
1.05286315465e-07
1.01572834275e-07
9.80274371173e-08
9.47313475079e-08
9.16214970911e-08
8.86296978756e-08
8.57895470329e-08
8.31396143635e-08
8.05710138376e-08
7.81699903122e-08
7.58352063026e-08
7.36485984388e-08
7.15155073182e-08
6.94755465113e-08
6.75688521685e-08
6.57010176777e-08
6.39132350907e-08
6.22538121021e-08
6.06258200046e-08
5.90756572391e-08
5.76446878048e-08
5.6245065176e-08
5.49226117259e-08
5.36753756353e-08
5.25465419791e-08
5.1451430791e-08
5.04322828643e-08
4.94900986089e-08
4.86684468382e-08
4.78793782681e-08
4.71672237089e-08
4.65316374129e-08
4.5972574038e-08
4.5490058159e-08
4.50819575054e-08
4.47905274021e-08
4.45305125524e-08
4.43426866097e-08
4.42255073585e-08
0.232918
0.232918
0.232918
0.232918
0.232918
0.232918
0.232918
0.232918
0.232918
0.232918
0.232918
0.232918
0.232918
0.232918
0.232918
0.232918
0.232918
0.232912393231
0.000408544362635
4.57860401616e-06
2.20963810544e-07
1.56388316262e-07
1.47547991763e-07
1.4819555322e-07
1.46008631515e-07
1.40808420597e-07
1.34867518704e-07
1.29193022901e-07
1.2383632039e-07
1.18895148725e-07
1.14282595656e-07
1.09925724868e-07
1.05892241034e-07
1.0210142365e-07
9.84846424295e-08
9.51291073067e-08
9.19059746376e-08
8.89064502373e-08
8.60113081068e-08
8.33124334002e-08
8.06986900747e-08
7.82598659164e-08
7.58856966631e-08
7.36179202627e-08
7.15068444923e-08
6.94430267755e-08
6.74720108273e-08
6.5637772679e-08
6.38447083689e-08
6.21385692349e-08
6.05631104664e-08
5.902151463e-08
5.75633651373e-08
5.62299452659e-08
5.49329413989e-08
5.37161115433e-08
5.25799956703e-08
5.15730572762e-08
5.05973462678e-08
4.97021020216e-08
4.88872183033e-08
4.81522752929e-08
4.75415547e-08
4.69641962238e-08
4.64652384046e-08
4.60426930403e-08
4.56974817288e-08
4.54269932067e-08
4.52296941223e-08
4.51051105916e-08
0.232918
0.232918
0.232918
0.232918
0.232918
0.232918
0.232918
0.232918
0.232918
0.232918
0.232918
0.232918
0.232918
0.232918
0.232918
0.232918
0.232917921039
0.203207604039
2.3586122561e-05
4.38065056195e-07
1.87009874488e-07
1.59886259382e-07
1.58929599722e-07
1.59046961055e-07
1.54635216208e-07
1.48125045865e-07
1.41520612614e-07
1.35303131567e-07
1.29474499779e-07
1.24107931533e-07
1.19118746549e-07
1.14408815423e-07
1.10053775419e-07
1.05980701575e-07
1.0210287147e-07
9.84994049503e-08
9.50554691078e-08
9.1847828194e-08
8.88199029432e-08
8.58971029463e-08
8.31211900085e-08
8.0534332302e-08
7.8024036611e-08
7.56858555602e-08
7.34084210682e-08
7.12884684246e-08
6.92198723633e-08
6.72509621278e-08
6.54266209527e-08
6.36440790344e-08
6.19517455188e-08
6.04000183575e-08
5.888386834e-08
5.7454652878e-08
5.61112160184e-08
5.49020931008e-08
5.37294714137e-08
5.26399288719e-08
5.16352162259e-08
5.07605424634e-08
4.99211113395e-08
4.91638105455e-08
4.84885232567e-08
4.7896948739e-08
4.73838169435e-08
4.69951987562e-08
4.66377079319e-08
4.63568398565e-08
4.61504360268e-08
4.60176300635e-08
0.232918
0.232918
0.232918
0.232918
0.232918
0.232918
0.232918
0.232918
0.232918
0.232918
0.232918
0.232918
0.232918
0.232918
0.232918
0.232918
0.232914396411
0.00135200178716
6.2739331459e-06
2.53940541044e-07
1.78228315949e-07
1.70059394769e-07
1.71963811252e-07
1.69455703932e-07
1.62760092651e-07
1.55181615185e-07
1.47914748209e-07
1.41162908127e-07
1.34868215676e-07
1.29091201913e-07
1.23728060447e-07
1.18732420774e-07
1.14020457294e-07
1.09658540703e-07
1.05580476544e-07
1.01692890899e-07
9.80880705255e-08
9.46333431306e-08
9.14246528865e-08
8.83373852098e-08
8.54616349339e-08
8.26844725564e-08
8.0099228172e-08
7.75910107402e-08
7.52603220875e-08
7.29899438264e-08
7.08310726856e-08
6.88292288877e-08
6.68785876527e-08
6.50806912422e-08
6.33256391051e-08
6.16684297005e-08
6.01016684319e-08
5.86784354739e-08
5.72927950493e-08
5.59969933885e-08
5.48413533633e-08
5.37224503042e-08
5.26890560503e-08
5.17426817454e-08
5.08822820436e-08
5.01587119427e-08
4.9466211654e-08
4.88560931815e-08
4.83269431281e-08
4.78796972494e-08
4.75099001572e-08
4.72194067956e-08
4.70044261497e-08
4.68631235712e-08
0.232918
0.232918
0.232918
0.232918
0.232918
0.232918
0.232918
0.232918
0.232918
0.232918
0.232918
0.232918
0.232918
0.232918
0.232918
0.232917902989
0.200507198032
2.42997552102e-05
5.02750124087e-07
2.09702940657e-07
1.82816537141e-07
1.84134450098e-07
1.84510256937e-07