/*--------------------------------*- C++ -*----------------------------------*\
| =========                 |                                                 |
| \\      /  F ield         | foam-extend: Open Source CFD                    |
|  \\    /   O peration     | Version:     4.1                                |
|   \\  /    A nd           | Web:         http://www.foam-extend.org         |
|    \\/     M anipulation  |                                                 |
\*---------------------------------------------------------------------------*/
FoamFile
{
    version     2.0;
    format      ascii;
    class       volScalarField;
    location    "0.0006";
    object      O2Plus;
}
// * * * * * * * * * * * * * * * * * * * * * * * * * * * * * * * * * * * * * //

dimensions      [0 0 0 0 0 0 0];

internalField   nonuniform List<scalar> 
8400
(
2.93247975335e-108
2.93247975337e-108
2.93247975339e-108
2.9324797534e-108
2.93247975342e-108
2.93247975343e-108
2.93247975345e-108
2.93247975346e-108
2.93247975347e-108
2.93247975349e-108
2.9324797535e-108
2.93247975351e-108
2.93247975353e-108
2.93247975354e-108
2.93247975355e-108
2.93247975356e-108
2.93247975358e-108
2.93247975359e-108
2.93247975379e-108
2.93247976481e-108
2.93248040793e-108
2.93251655435e-108
2.93458650719e-108
2.97766866407e-108
2.38151491903e-42
1.1809764224e-10
1.18308221352e-07
2.08266425771e-07
2.28929254842e-07
2.37536479328e-07
2.46099287373e-07
2.51643881933e-07
2.53278947166e-07
2.53049566202e-07
2.52367950663e-07
2.51597366085e-07
2.508389853e-07
2.50109180703e-07
2.49401932802e-07
2.48708875933e-07
2.48022413334e-07
2.47333399428e-07
2.46710189471e-07
2.45993967306e-07
2.45255974997e-07
2.44491016886e-07
2.43693810856e-07
2.42859716652e-07
2.41988304769e-07
2.41078853227e-07
2.40129950411e-07
2.39141234021e-07
2.38114918714e-07
2.37054538755e-07
2.35963305748e-07
2.34932282339e-07
2.33811441515e-07
2.32687987961e-07
2.31570748335e-07
2.30477046357e-07
2.29423961712e-07
2.2842294853e-07
2.27488554065e-07
2.26635993167e-07
2.25877105614e-07
2.25225146672e-07
2.2469228755e-07
2.24287685597e-07
2.24018819438e-07
2.2397691611e-07
2.93247974906e-108
2.93247974907e-108
2.93247974907e-108
2.93247974908e-108
2.93247974908e-108
2.93247974909e-108
2.9324797491e-108
2.9324797491e-108
2.93247974911e-108
2.93247974911e-108
2.93247974912e-108
2.93247974912e-108
2.93247974913e-108
2.93247974914e-108
2.93247974914e-108
2.93247974915e-108
2.93247974915e-108
2.93247974917e-108
2.93247975016e-108
2.93247980749e-108
2.93248314515e-108
2.93266881914e-108
2.9431467919e-108
3.08209153202e-108
7.20423281476e-22
2.67659169157e-08
1.7608808537e-07
2.18559006229e-07
2.30018796755e-07
2.37159999703e-07
2.44816822126e-07
2.48957482853e-07
2.50108541542e-07
2.50150388603e-07
2.49934707366e-07
2.49625035476e-07
2.49273438013e-07
2.48890016253e-07
2.4847550209e-07
2.4802989819e-07
2.47549699393e-07
2.47032661869e-07
2.46473381734e-07
2.45871844175e-07
2.45226773553e-07
2.44537442725e-07
2.43800167666e-07
2.43011431965e-07
2.42171914061e-07
2.41284436921e-07
2.40351186242e-07
2.39372593421e-07
2.38352389443e-07
2.37295792506e-07
2.36208699814e-07
2.35103790837e-07
2.33991378885e-07
2.32878346034e-07
2.31777426279e-07
2.30706258711e-07
2.29677354751e-07
2.28701360394e-07
2.27793085005e-07
2.26968178738e-07
2.26239605895e-07
2.2561665516e-07
2.25108621701e-07
2.24723122801e-07
2.24465770804e-07
2.24399686228e-07
2.93247974713e-108
2.93247974713e-108
2.93247974714e-108
2.93247974714e-108
2.93247974715e-108
2.93247974715e-108
2.93247974715e-108
2.93247974716e-108
2.93247974716e-108
2.93247974716e-108
2.93247974717e-108
2.93247974717e-108
2.93247974717e-108
2.93247974718e-108
2.93247974718e-108
2.93247974718e-108
2.93247974719e-108
2.93247974728e-108
2.93247975242e-108
2.93248005542e-108
2.93249740158e-108
2.93349260959e-108
2.96234032541e-108
9.84337493671e-43
5.05911942702e-12
8.69492620911e-08
2.00635152954e-07
2.24672577658e-07
2.31723410203e-07
2.39217848181e-07
2.45491392152e-07
2.48096564823e-07
2.48770989007e-07
2.48750331227e-07
2.48621120237e-07
2.48425382607e-07
2.48185132978e-07
2.47901644924e-07
2.47574009641e-07
2.47199341926e-07
2.46699567378e-07
2.46225977332e-07
2.45702997412e-07
2.4513031249e-07
2.44504498567e-07
2.4382331661e-07
2.43085208045e-07
2.42292504473e-07
2.41449019702e-07
2.40554292549e-07
2.39607785273e-07
2.38615398276e-07
2.37586650355e-07
2.365270484e-07
2.35443942134e-07
2.34421676317e-07
2.33316640351e-07
2.32217242685e-07
2.31140376669e-07
2.30096138371e-07
2.29093989932e-07
2.28149675506e-07
2.27277865414e-07
2.26489396692e-07
2.25793843355e-07
2.25200959145e-07
2.24718555975e-07
2.24352986319e-07
2.24108485855e-07
2.24035897776e-07
2.93247974602e-108
2.93247974602e-108
2.93247974603e-108
2.93247974603e-108
2.93247974603e-108
2.93247974604e-108
2.93247974604e-108
2.93247974604e-108
2.93247974604e-108
2.93247974605e-108
2.93247974605e-108
2.93247974605e-108
2.93247974605e-108
2.93247974605e-108
2.93247974606e-108
2.93247974606e-108
2.93247974607e-108
2.93247974649e-108
2.93247977143e-108
2.93248123694e-108
2.93256368953e-108
2.93729499826e-108
3.01589107479e-108
8.95779694489e-29
8.24991884968e-09
1.53121220176e-07
2.13418749412e-07
2.27723943237e-07
2.34451571228e-07
2.42336906637e-07
2.47258893985e-07
2.4881831901e-07
2.49091629788e-07
2.49022295761e-07
2.48835757766e-07
2.48595107741e-07
2.48312308022e-07
2.47988573724e-07
2.47621724994e-07
2.47209435415e-07
2.46747171648e-07
2.46159487623e-07
2.4559410905e-07
2.44978491824e-07
2.44309494322e-07
2.43584632051e-07
2.42802316502e-07
2.41965849525e-07
2.41079814818e-07
2.40144894697e-07
2.39161093817e-07
2.38216397708e-07
2.37155771643e-07
2.36066551418e-07
2.34961411983e-07
2.33848390162e-07
2.32733457962e-07
2.31631085406e-07
2.30557335935e-07
2.29521078894e-07
2.28530645832e-07
2.27601300353e-07
2.26746351673e-07
2.25975774378e-07
2.25298274659e-07
2.24722035524e-07
2.24253984588e-07
2.23899224738e-07
2.23661421007e-07
2.23584645825e-07
2.93247974531e-108
2.93247974531e-108
2.93247974531e-108
2.93247974532e-108
2.93247974532e-108
2.93247974532e-108
2.93247974532e-108
2.93247974532e-108
2.93247974533e-108
2.93247974533e-108
2.93247974533e-108
2.93247974533e-108
2.93247974533e-108
2.93247974534e-108
2.93247974534e-108
2.93247974534e-108
2.93247974537e-108
2.93247974672e-108
2.93247982552e-108
2.93248441225e-108
2.93273968294e-108
2.94706201457e-108
3.12474665239e-108
7.9737679576e-17
3.7703496802e-08
1.8359251558e-07
2.20744591648e-07
2.31021923052e-07
2.38647152385e-07
2.46242772359e-07
2.49907127875e-07
2.50842291408e-07
2.50793917398e-07
2.50558926522e-07
2.50248337068e-07
2.49897119845e-07
2.49507164179e-07
2.49079305294e-07
2.48610845398e-07
2.4810200195e-07
2.47547725492e-07
2.46946432111e-07
2.46292217338e-07
2.45587244337e-07
2.44831174488e-07
2.44024152694e-07
2.43164533409e-07
2.42250702208e-07
2.41287979063e-07
2.40282836413e-07
2.39236557347e-07
2.38153502166e-07
2.37041351072e-07
2.35904241606e-07
2.34755416992e-07
2.33606066321e-07
2.32462853206e-07
2.31335990569e-07
2.30242049576e-07
2.29192621639e-07
2.28195228534e-07
2.27261219442e-07
2.26485441486e-07
2.25713524149e-07
2.25035603223e-07
2.2445982462e-07
2.23993042368e-07
2.23639452148e-07
2.23402043523e-07
2.23321765235e-07
2.93247974482e-108
2.93247974482e-108
2.93247974483e-108
2.93247974483e-108
2.93247974483e-108
2.93247974483e-108
2.93247974483e-108
2.93247974483e-108
2.93247974484e-108
2.93247974484e-108
2.93247974484e-108
2.93247974484e-108
2.93247974484e-108
2.93247974484e-108
2.93247974484e-108
2.93247974485e-108
2.93247974492e-108
2.93247974892e-108
2.93247998645e-108
2.93249372908e-108
2.93328343792e-108
2.95946209867e-108
6.95447492431e-43
1.86358576515e-12
7.75528786873e-08
1.98838867666e-07
2.26014735749e-07
2.35047278392e-07
2.43818089741e-07
2.50815060296e-07
2.5346343475e-07
2.53900045342e-07
2.53571819959e-07
2.53139680679e-07
2.52658785012e-07
2.52147955758e-07
2.51607814614e-07
2.5103542545e-07
2.50428380378e-07
2.49781802811e-07
2.49092792571e-07
2.48360880143e-07
2.47586702034e-07
2.46765870389e-07
2.45894254866e-07
2.44972930802e-07
2.44005506125e-07
2.42993575254e-07
2.41935714789e-07
2.40835301061e-07
2.39700887976e-07
2.38538031583e-07
2.37351365013e-07
2.36149972268e-07
2.34938528662e-07
2.33732025693e-07
2.32616639003e-07
2.31450968085e-07
2.3032092404e-07
2.29237446431e-07
2.28211219187e-07
2.27255532492e-07
2.263818239e-07
2.25597437907e-07
2.249090619e-07
2.24324574336e-07
2.23850291017e-07
2.23490144412e-07
2.23247167287e-07
2.23160252573e-07
2.93247974447e-108
2.93247974447e-108
2.93247974447e-108
2.93247974448e-108
2.93247974448e-108
2.93247974448e-108
2.93247974448e-108
2.93247974448e-108
2.93247974448e-108
2.93247974448e-108
2.93247974448e-108
2.93247974449e-108
2.93247974449e-108
2.93247974449e-108
2.93247974449e-108
2.93247974449e-108
2.93247974469e-108
2.93247975586e-108
2.93248041297e-108
2.93251761802e-108
2.93465790643e-108
2.97913666893e-108
2.4827573624e-42
1.47708354446e-10
1.20423716866e-07
2.09075060943e-07
2.30220097755e-07
2.39719318982e-07
2.49639790382e-07
2.55895964296e-07
2.57797105489e-07
2.57772467921e-07
2.57181043654e-07
2.56537128959e-07
2.55860843978e-07
2.55162927691e-07
2.54439539297e-07
2.53690351439e-07
2.52913985104e-07
2.52107090653e-07
2.51265194638e-07
2.50385100991e-07
2.49464375411e-07
2.48498527291e-07
2.47490644008e-07
2.46442350366e-07
2.45350464834e-07
2.44214103062e-07
2.4304130721e-07
2.41836609277e-07
2.40676100387e-07
2.39416404127e-07
2.38134782367e-07
2.36845939051e-07
2.35560443098e-07
2.3428241702e-07
2.33023105137e-07
2.31798981934e-07
2.3061817401e-07
2.29490603908e-07
2.28427040055e-07
2.27435292642e-07
2.26528671194e-07
2.2571879166e-07
2.25093231411e-07
2.24494157675e-07
2.24007061547e-07
2.23636035639e-07
2.23384935826e-07
2.23291334943e-07
2.93247974421e-108
2.93247974421e-108
2.93247974421e-108
2.93247974421e-108
2.93247974421e-108
2.93247974421e-108
2.93247974422e-108
2.93247974422e-108
2.93247974422e-108
2.93247974422e-108
2.93247974422e-108
2.93247974422e-108
2.93247974422e-108
2.93247974422e-108
2.93247974422e-108
2.93247974423e-108
2.93247974475e-108
2.93247977506e-108
2.93248155382e-108
2.93258178808e-108
2.93834055199e-108
3.02930515329e-108
1.48302410346e-28
1.17353615929e-08
1.59247405009e-07
2.16897124911e-07
2.34553628333e-07
2.45542300601e-07
2.55756925746e-07
2.61223317001e-07
2.62455886875e-07
2.62161833751e-07
2.61431126949e-07
2.60517699952e-07
2.59646441648e-07
2.58757707957e-07
2.57845453825e-07
2.56910287958e-07
2.55952716025e-07
2.54969322775e-07
2.53952278388e-07
2.52901350522e-07
2.51819222756e-07
2.50702003302e-07
2.49621356468e-07
2.48427427594e-07
2.47191557245e-07
2.45923084138e-07
2.44624025285e-07
2.43291239905e-07
2.41935817542e-07
2.40566581174e-07
2.39186853655e-07
2.37804200592e-07
2.36424827386e-07
2.35065452341e-07
2.33736108295e-07
2.32518369786e-07
2.31274918648e-07
2.30090743744e-07
2.28975857376e-07
2.27939477351e-07
2.26994376978e-07
2.26150980279e-07
2.25414445001e-07
2.2479098785e-07
2.2428533252e-07
2.23900934672e-07
2.23639892202e-07
2.23539785603e-07
2.93247974401e-108
2.93247974401e-108
2.93247974401e-108
2.93247974401e-108
2.93247974401e-108
2.93247974401e-108
2.93247974401e-108
2.93247974401e-108
2.93247974401e-108
2.93247974402e-108
2.93247974402e-108
2.93247974402e-108
2.93247974402e-108
2.93247974402e-108
2.93247974402e-108
2.93247974404e-108
2.93247974524e-108
2.93247981488e-108
2.93248386262e-108
2.9327089813e-108
2.945334036e-108
3.10667957415e-108
1.06487514894e-18
3.18195865852e-08
1.80361893695e-07
2.23690356664e-07
2.39868683085e-07
2.52355401673e-07
2.62786886234e-07
2.67174077798e-07
2.67768773573e-07
2.67111777645e-07
2.66129660535e-07
2.65074055323e-07
2.63997681936e-07
2.62904809803e-07
2.61796371997e-07
2.60664556172e-07
2.59512577947e-07
2.58340828092e-07
2.57140680483e-07
2.55910058383e-07
2.54653698515e-07
2.53367133097e-07
2.52048231446e-07
2.50694285168e-07
2.49308398794e-07
2.47897188133e-07
2.46456231827e-07
2.44992257107e-07
2.43515294587e-07
2.42024589836e-07
2.40610959062e-07
2.391249048e-07
2.37648053439e-07
2.36195178268e-07
2.34780452956e-07
2.3340764541e-07
2.32089575599e-07
2.30842096511e-07
2.296722332e-07
2.28589250401e-07
2.27602632611e-07
2.26798600467e-07
2.26025982279e-07
2.25372341014e-07
2.24843590873e-07
2.24441072909e-07
2.24166885147e-07
2.24058638988e-07
2.93247974385e-108
2.93247974385e-108
2.93247974385e-108
2.93247974385e-108
2.93247974385e-108
2.93247974385e-108
2.93247974385e-108
2.93247974385e-108
2.93247974385e-108
2.93247974385e-108
2.93247974385e-108
2.93247974386e-108
2.93247974386e-108
2.93247974386e-108
2.93247974386e-108
2.9324797439e-108
2.93247974629e-108
2.93247988796e-108
2.93248823713e-108
2.93296681006e-108
2.95486434087e-108
2.38657272276e-43
1.42359944788e-13
5.93250910343e-08
1.9431800402e-07
2.29973210176e-07
2.46339181957e-07
2.60059966727e-07
2.70154551536e-07
2.73695877078e-07
2.73626044138e-07
2.72600490297e-07
2.71343945132e-07
2.70040984802e-07
2.68722695676e-07
2.67402002159e-07
2.66071356332e-07
2.64726043126e-07
2.63369963081e-07
2.61997158153e-07
2.60604438362e-07
2.59183980748e-07
2.57742136947e-07
2.56276484874e-07
2.54779597564e-07
2.53261890392e-07
2.51721975027e-07
2.50230587925e-07
2.48645710845e-07
2.47042709151e-07
2.45428077014e-07
2.4381371957e-07
2.42198681733e-07
2.40597321628e-07
2.39019634814e-07
2.37475159184e-07
2.36045125014e-07
2.3459304158e-07
2.33202927483e-07
2.31883549135e-07
2.30646443e-07
2.29506745192e-07
2.28471035457e-07
2.27546351792e-07
2.26739750576e-07
2.26057244909e-07
2.25501356717e-07
2.25077674473e-07
2.24788361574e-07
2.24669906463e-07
2.93247974372e-108
2.93247974372e-108
2.93247974372e-108
2.93247974372e-108
2.93247974372e-108
2.93247974372e-108
2.93247974372e-108
2.93247974372e-108
2.93247974372e-108
2.93247974372e-108
2.93247974372e-108
2.93247974373e-108
2.93247974373e-108
2.93247974373e-108
2.93247974373e-108
2.93247974385e-108
2.9324797507e-108
2.93248015219e-108
2.93250293502e-108
2.93380153926e-108
2.96740872944e-108
1.34249265559e-42
1.2529006023e-11
9.42259931462e-08
2.05692227727e-07
2.36400947368e-07
2.53686954204e-07
2.689053055e-07
2.7814647565e-07
2.80562303085e-07
2.79945945058e-07
2.78549876375e-07
2.76989871148e-07
2.75414527866e-07
2.73836474091e-07
2.722667003e-07
2.70699207264e-07
2.69127737996e-07
2.67544858709e-07
2.65957157711e-07
2.64353442326e-07
2.62735044448e-07
2.61175840091e-07
2.59523287754e-07
2.57847192008e-07
2.56152358318e-07
2.5444256638e-07
2.52717067885e-07
2.50972854557e-07
2.49224445482e-07
2.47476443302e-07
2.45805510755e-07
2.44071346659e-07
2.42355010124e-07
2.40665016531e-07
2.39013373447e-07
2.37414571184e-07
2.35871050342e-07
2.34399734808e-07
2.33092751114e-07
2.31794096084e-07
2.30596604521e-07
2.29505053146e-07
2.28531847719e-07
2.27685795951e-07
2.26969867229e-07
2.26388194468e-07
2.25944221519e-07
2.25640122253e-07
2.25513611771e-07
2.93247974361e-108
2.93247974361e-108
2.93247974361e-108
2.93247974361e-108
2.93247974361e-108
2.93247974361e-108
2.93247974361e-108
2.93247974362e-108
2.93247974362e-108
2.93247974362e-108
2.93247974362e-108
2.93247974362e-108
2.93247974362e-108
2.93247974362e-108
2.93247974363e-108
2.93247974391e-108
2.93247976076e-108
2.93248074825e-108
2.93253654709e-108
2.93574796879e-108
2.99550051432e-108
3.50087834692e-30
1.45033135926e-09
1.3133067939e-07
2.15665294202e-07
2.43313841429e-07
2.62261641003e-07
2.78176558079e-07
2.86333559526e-07
2.87789243846e-07
2.86609463183e-07
2.84851114916e-07
2.82985192694e-07
2.81120505324e-07
2.79274238509e-07
2.77439998913e-07
2.7561505401e-07
2.73874427242e-07
2.72062452716e-07
2.70241941359e-07
2.68420870939e-07
2.66589280465e-07
2.64748425737e-07
2.6290024578e-07
2.6103863038e-07
2.59161634934e-07
2.57353655722e-07
2.5546119875e-07
2.53563519268e-07
2.51662227531e-07
2.49765347077e-07
2.4788423102e-07
2.46021945544e-07
2.44180575867e-07
2.42461439338e-07
2.40709132133e-07
2.39011125276e-07
2.37376756761e-07
2.35824884624e-07
2.34361551976e-07
2.32996410386e-07
2.31736367349e-07
2.30680185238e-07
2.29660655388e-07
2.28771011331e-07
2.28019010262e-07
2.2740876303e-07
2.26942580576e-07
2.26622325639e-07
2.26486305875e-07
2.93247974352e-108
2.93247974352e-108
2.93247974352e-108
2.93247974352e-108
2.93247974352e-108
2.93247974352e-108
2.93247974352e-108
2.93247974353e-108
2.93247974353e-108
2.93247974353e-108
2.93247974353e-108
2.93247974353e-108
2.93247974353e-108
2.93247974353e-108
2.93247974354e-108
2.93247974432e-108
2.93247978953e-108
2.93248241287e-108
2.93262817213e-108
2.94082119109e-108
3.05837193603e-108
3.04742082919e-22
1.8078361942e-08
1.6727212348e-07
2.24914597393e-07
2.51450815358e-07
2.72007527193e-07
2.87949494042e-07
2.94632831282e-07
2.95139124885e-07
2.93467428497e-07
2.91375515298e-07
2.89217735652e-07
2.87072703752e-07
2.85014552135e-07
2.82910873678e-07
2.80826826146e-07
2.78750775565e-07
2.76691223878e-07
2.74634616661e-07
2.72586074259e-07
2.70541648223e-07
2.68566883711e-07
2.66512101629e-07
2.64453065651e-07
2.62394055426e-07
2.60329489808e-07
2.5826290922e-07
2.56202881109e-07
2.54225835399e-07
2.52186792802e-07
2.50166059672e-07
2.48166242224e-07
2.46207676084e-07
2.44294840934e-07
2.42433525201e-07
2.40720018539e-07
2.3899440117e-07
2.37358985383e-07
2.35820061105e-07
2.34386002342e-07
2.33063363554e-07
2.31867044946e-07
2.30802780745e-07
2.298760564e-07
2.29174170005e-07
2.28534368335e-07
2.28043936395e-07
2.27706018884e-07
2.27558452968e-07
2.93247974344e-108
2.93247974345e-108
2.93247974345e-108
2.93247974345e-108
2.93247974345e-108
2.93247974345e-108
2.93247974345e-108
2.93247974345e-108
2.93247974345e-108
2.93247974345e-108
2.93247974345e-108
2.93247974345e-108
2.93247974345e-108
2.93247974345e-108
2.93247974349e-108
2.93247974532e-108
2.9324798503e-108
2.93248582598e-108
2.93281191791e-108
2.95052720206e-108
3.16303924414e-108
1.72504644711e-15
4.18101663981e-08
1.87807499189e-07
2.34398433855e-07
2.6090162109e-07
2.83173365679e-07
2.9818822636e-07
3.03209002962e-07
3.02752378163e-07
3.00571171603e-07
2.98123201472e-07
2.95719658703e-07
2.9326709235e-07
2.90851333682e-07
2.8846277315e-07
2.8610785184e-07
2.83774532952e-07
2.81536389698e-07
2.79237924952e-07
2.76951082153e-07
2.74676133217e-07
2.72411330984e-07
2.70147260613e-07
2.67892200603e-07
2.65716560855e-07
2.63471775578e-07
2.6123592908e-07
2.5900683442e-07
2.56796206231e-07
2.54609831544e-07
2.52524436147e-07
2.50396927287e-07
2.48315034746e-07
2.46282401035e-07
2.44313262124e-07
2.42421286597e-07
2.40690000687e-07
2.38972104273e-07
2.37356632486e-07
2.3585229206e-07
2.34467884497e-07
2.33218467011e-07
2.321074002e-07
2.31138480463e-07
2.303173663e-07
2.2965009101e-07
2.29225069851e-07
2.28871682206e-07
2.28713069669e-07
2.93247974338e-108
2.93247974338e-108
2.93247974338e-108
2.93247974338e-108
2.93247974338e-108
2.93247974338e-108
2.93247974338e-108
2.93247974338e-108
2.93247974338e-108
2.93247974339e-108
2.93247974339e-108
2.93247974339e-108
2.93247974339e-108
2.93247974339e-108
2.93247974348e-108
2.93247974881e-108
2.93248005836e-108
2.93249754291e-108
2.93347828843e-108
2.96337158596e-108
8.7106405403e-43
2.88019748807e-12
7.7542827624e-08
2.03512274121e-07
2.44438089962e-07
2.72201383589e-07
2.95423294416e-07
3.08790810288e-07
3.12003660556e-07
3.10558434028e-07
3.0793190642e-07
3.05107638412e-07
3.02291547685e-07
2.99523270206e-07
2.96799830167e-07
2.94198086545e-07
2.91558803693e-07
2.88954635491e-07
2.8638334352e-07
2.83831762591e-07
2.81312128184e-07
2.78881876576e-07
2.76392735803e-07
2.73917895686e-07
2.714599827e-07
2.69013083e-07
2.66664134338e-07
2.64253990612e-07
2.61855099424e-07
2.59488637094e-07
2.57149692776e-07
2.54846006832e-07
2.52668940555e-07
2.50465243299e-07
2.48321972849e-07
2.46248550048e-07
2.44251291841e-07
2.42351670354e-07
2.40637285887e-07
2.3894415621e-07
2.37370797617e-07
2.35930695474e-07
2.34627822681e-07
2.33468843312e-07
2.32455139147e-07
2.31596412395e-07
2.30898763733e-07
2.30365631092e-07
2.30083127286e-07
2.29822972428e-07
2.93247974332e-108
2.93247974332e-108
2.93247974332e-108
2.93247974333e-108
2.93247974333e-108
2.93247974333e-108
2.93247974333e-108
2.93247974333e-108
2.93247974333e-108
2.93247974333e-108
2.93247974333e-108
2.93247974333e-108
2.93247974333e-108
2.93247974334e-108
2.93247974361e-108
2.93247975925e-108
2.93248065603e-108
2.93253026803e-108
2.93530890131e-108
2.98919281334e-108
3.03600797599e-42
3.36637424104e-10
1.2142320126e-07
2.17658503489e-07
2.55643222366e-07
2.84950020257e-07
3.08228773819e-07
3.1939704589e-07
3.20717109589e-07
3.1844669209e-07
3.15324917335e-07
3.12107295869e-07
3.08944063308e-07
3.05912807826e-07
3.0287689473e-07
2.99896815478e-07
2.96968425194e-07
2.94085835852e-07
2.91327708387e-07
2.88524659286e-07
2.85754376613e-07
2.83019264417e-07
2.80389159813e-07
2.77699230897e-07
2.75037422182e-07
2.72393765241e-07
2.69780791052e-07
2.6727292238e-07
2.64713568945e-07
2.6218441461e-07
2.5969973954e-07
2.57257155614e-07
2.54954964287e-07
2.52624445514e-07
2.50366587685e-07
2.48189988043e-07
2.46101871599e-07
2.44109157663e-07
2.42312225633e-07
2.40549684027e-07
2.38913877951e-07
2.37414335185e-07
2.36055518887e-07
2.34845404499e-07
2.33794664596e-07
2.32905827937e-07
2.32181786952e-07
2.31624368176e-07
2.31325606812e-07
2.31140426236e-07
2.93247974327e-108
2.93247974327e-108
2.93247974328e-108
2.93247974328e-108
2.93247974328e-108
2.93247974328e-108
2.93247974328e-108
2.93247974328e-108
2.93247974328e-108
2.93247974328e-108
2.93247974328e-108
2.93247974328e-108
2.93247974328e-108
2.9324797433e-108
2.93247974418e-108
2.9324797948e-108
2.93248268995e-108
2.93264145321e-108
2.94141118969e-108
3.06591130285e-108
3.3359149452e-22
1.78346887602e-08
1.66290098289e-07
2.31198032654e-07
2.68150379551e-07
2.99245280724e-07
3.21163202952e-07
3.29492540126e-07
3.29216886612e-07
3.26218551378e-07
3.2266061112e-07
3.19146166655e-07
3.15637508296e-07
3.12201806563e-07
3.08844685792e-07
3.05632782919e-07
3.02415680569e-07
2.99253550128e-07
2.96152939385e-07
2.93172785261e-07
2.90163413169e-07
2.871882056e-07
2.84258740155e-07
2.81433993184e-07
2.78570119137e-07
2.75733958347e-07
2.72935288167e-07
2.70174698943e-07
2.67532245241e-07
2.64850088774e-07
2.62216482514e-07
2.59640093263e-07
2.57126217983e-07
2.54760283832e-07
2.52395550047e-07
2.50117973044e-07
2.47934190841e-07
2.4585602038e-07
2.43981900465e-07
2.4214898855e-07
2.40448782608e-07
2.38892087867e-07
2.37485563687e-07
2.36234834788e-07
2.3514484416e-07
2.34220635488e-07
2.33556875848e-07
2.32975803644e-07
2.3256540485e-07
2.3236476311e-07
2.93247974323e-108
2.93247974323e-108
2.93247974323e-108
2.93247974323e-108
2.93247974323e-108
2.93247974323e-108
2.93247974323e-108
2.93247974323e-108
2.93247974323e-108
2.93247974324e-108
2.93247974324e-108
2.93247974324e-108
2.93247974324e-108
2.93247974328e-108
2.93247974579e-108
2.93247988588e-108
2.93248766335e-108
2.93290592609e-108
2.95455610631e-108
9.05870896849e-44
2.58219678228e-14
4.77248559057e-08
1.92754372943e-07
2.45424719143e-07
2.83032264584e-07
3.14803385694e-07
3.34109482763e-07
3.39371329666e-07
3.37543163441e-07
3.33868192564e-07
3.29947704652e-07
3.25999513067e-07
3.22139912666e-07
3.18451021629e-07
3.14774646529e-07
3.11190879171e-07
3.07680238147e-07
3.04315958154e-07
3.0094493343e-07
2.97636149687e-07
2.94458168924e-07
2.91255658047e-07
2.88100689379e-07
2.84991638899e-07
2.82006540693e-07
2.78986104098e-07
2.76003459093e-07
2.73073579013e-07
2.70273131891e-07
2.67439909857e-07
2.64668041687e-07
2.61959354991e-07
2.59400698882e-07
2.56840770782e-07
2.54367963298e-07
2.51992846978e-07
2.49716866556e-07
2.47560129038e-07
2.45617650515e-07
2.43713959581e-07
2.41950165342e-07
2.40338471028e-07
2.38882880525e-07
2.37589763821e-07
2.36465417383e-07
2.3560191011e-07
2.3482250635e-07
2.34217441144e-07
2.33788203935e-07
2.33571918013e-07
2.93247974319e-108
2.93247974319e-108
2.93247974319e-108
2.93247974319e-108
2.93247974319e-108
2.93247974319e-108
2.9324797432e-108
2.9324797432e-108
2.9324797432e-108
2.9324797432e-108
2.9324797432e-108
2.9324797432e-108
2.9324797432e-108
2.93247974338e-108
2.9324797536e-108
2.93248033265e-108
2.93251209649e-108
2.93425857811e-108
2.97509575376e-108
1.71400516837e-42
2.308031152e-11
9.5601926196e-08
2.13007475709e-07
2.61030852406e-07
2.99984943401e-07
3.31148615741e-07
3.4659970304e-07
3.48793303053e-07
3.45724399193e-07
3.41420524298e-07
3.37003835149e-07
3.32679323931e-07
3.28534309405e-07
3.24440557404e-07
3.20526778976e-07
3.16638556699e-07
3.12844354534e-07
3.09207574499e-07
3.05573577591e-07
3.02013059813e-07
2.98524914117e-07
2.95167011822e-07
2.91797028194e-07
2.88485049086e-07
2.85305524039e-07
2.82094510967e-07
2.78942829357e-07
2.75850620571e-07
2.72890776698e-07
2.69916849049e-07
2.67008420094e-07
2.64168568369e-07
2.61499538595e-07
2.58828179493e-07
2.56254753345e-07
2.53786328738e-07
2.51431662467e-07
2.49281138398e-07
2.47177532059e-07
2.45212778263e-07
2.43395015935e-07
2.41732731728e-07
2.40231994422e-07
2.38990392166e-07
2.37829668301e-07
2.3684420174e-07
2.36037100872e-07
2.35409615972e-07
2.34962056851e-07
2.34729852307e-07
2.93247974316e-108
2.93247974316e-108
2.93247974316e-108
2.93247974316e-108
2.93247974316e-108
2.93247974316e-108
2.93247974316e-108
2.93247974316e-108
2.93247974316e-108
2.93247974316e-108
2.93247974316e-108
2.93247974316e-108
2.93247974318e-108
2.93247974388e-108
2.93247978348e-108
2.93248200285e-108
2.9326018506e-108
2.93913681239e-108
3.04068048376e-108
1.47672591389e-28
1.02202772633e-08
1.49162569428e-07
2.31921325101e-07
2.78458262907e-07
3.18771647538e-07
3.47259289228e-07
3.58069213978e-07
3.5759330826e-07
3.53455073433e-07
3.48622922144e-07
3.43861473282e-07
3.39168470649e-07
3.34609899336e-07
3.30250021978e-07
3.25955934993e-07
3.218394319e-07
3.17767516527e-07
3.1378972323e-07
3.09977320088e-07
3.06170445984e-07
3.02450551187e-07
2.98878167048e-07
2.95293614743e-07
2.91783824752e-07
2.88414560616e-07
2.85030822137e-07
2.81710734904e-07
2.7845363246e-07
2.75350795166e-07
2.72238655716e-07
2.6920180129e-07
2.66243819396e-07
2.63465290303e-07
2.60694685916e-07
2.58021160708e-07
2.5546771115e-07
2.53122774746e-07
2.50817817903e-07
2.48648623968e-07
2.46624813148e-07
2.44754800964e-07
2.43046728083e-07
2.41592322693e-07
2.40222715623e-07
2.39028463916e-07
2.38013722884e-07
2.37180782238e-07
2.36531486954e-07
2.36065677033e-07
2.35816857679e-07
2.93247974313e-108
2.93247974313e-108
2.93247974313e-108
2.93247974313e-108
2.93247974313e-108
2.93247974313e-108
2.93247974313e-108
2.93247974313e-108
2.93247974313e-108
2.93247974313e-108
2.93247974313e-108
2.93247974313e-108
2.93247974318e-108
2.9324797458e-108
2.93247989002e-108
2.93248778415e-108
2.93290269703e-108
2.95429947072e-108
2.40332945075e-44
6.49078987588e-15
4.27010121852e-08
1.90684026918e-07
2.51356255819e-07
2.98513481322e-07
3.38532415057e-07
3.62270134323e-07
3.68339122007e-07
3.65648460031e-07
3.60677184542e-07
3.55452590425e-07
3.50258846447e-07
3.45279399252e-07
3.40397247753e-07
3.35726845409e-07
3.31126440404e-07
3.26658791768e-07
3.22376999762e-07
3.18141304078e-07
3.1408183986e-07
3.10049235519e-07
3.06101529714e-07
3.02316460291e-07
2.9854117624e-07
2.94836257596e-07
2.91293185822e-07
2.87742265175e-07
2.84261422719e-07
2.80946618127e-07
2.77617647972e-07
2.74371854017e-07
2.71216742715e-07
2.6823796571e-07
2.65265847845e-07
2.62397036573e-07
2.59645187047e-07
2.57098520988e-07
2.54592771982e-07
2.52221583373e-07
2.49994425761e-07
2.47919950306e-07
2.4609612963e-07
2.44344484153e-07
2.42763463694e-07
2.4135827353e-07
2.40133858691e-07
2.39093177493e-07
2.38238348424e-07
2.3756865681e-07
2.37086088413e-07
2.36916151283e-07
2.9324797431e-108
2.9324797431e-108
2.9324797431e-108
2.9324797431e-108
2.9324797431e-108
2.9324797431e-108
2.9324797431e-108
2.9324797431e-108
2.9324797431e-108
2.9324797431e-108
2.9324797431e-108
2.93247974311e-108
2.93247974334e-108
2.93247975656e-108
2.93248049088e-108
2.93252002382e-108
2.93465308603e-108
2.98110735738e-108
2.03219387505e-42
3.79783441716e-11
9.77864067459e-08
2.17294484195e-07
2.72890440746e-07
3.2111732649e-07
3.58589561259e-07
3.7594033671e-07
3.77526210237e-07
3.73129668792e-07
3.6746869679e-07
3.61762310759e-07
3.56264639794e-07
3.50959304634e-07
3.45752057871e-07
3.40781805188e-07
3.35894445357e-07
3.31158811141e-07
3.26618079061e-07
3.22140739742e-07
3.17841647538e-07
3.13585355498e-07
3.09428041741e-07
3.05447976765e-07
3.01481346954e-07
2.976802005e-07
2.93889759782e-07
2.90183376902e-07
2.86561848743e-07
2.83102148797e-07
2.7965057842e-07
2.76291255021e-07
2.7310934448e-07
2.69934992506e-07
2.66871035869e-07
2.63921154182e-07
2.61181182827e-07
2.58475420285e-07
2.55904135107e-07
2.53473482303e-07
2.51291546098e-07
2.49169608158e-07
2.4720912875e-07
2.45418732891e-07
2.43804159815e-07
2.42371128792e-07
2.41218291137e-07
2.40150570795e-07
2.39270558173e-07
2.38579824647e-07
2.38077390568e-07
2.37792265499e-07
2.93247974307e-108
2.93247974307e-108
2.93247974307e-108
2.93247974307e-108
2.93247974307e-108
2.93247974307e-108
2.93247974307e-108
2.93247974308e-108
2.93247974308e-108
2.93247974308e-108
2.93247974308e-108
2.9324797431e-108
2.93247974427e-108
2.93247980906e-108
2.93248338351e-108
2.93267317753e-108
2.94274066757e-108
3.08256688995e-108
3.89537294265e-22
1.72348120762e-08
1.61795102007e-07
2.41925201931e-07
2.96793501121e-07
3.45196835159e-07
3.77052479156e-07
3.87457166429e-07
3.85478697852e-07
3.79828759706e-07
3.73687729801e-07
3.67582697688e-07
3.61741936781e-07
3.56047911811e-07
3.50607624993e-07
3.45285864875e-07
3.40196671276e-07
3.35206864414e-07
3.30420769094e-07
3.25713496989e-07
3.21202296552e-07
3.16738452874e-07
3.12466709846e-07
3.08223159862e-07
3.04080184205e-07
3.00117008859e-07
2.96166503023e-07
2.92317790188e-07
2.88643041454e-07
2.84980277245e-07
2.81407942974e-07
2.7803013827e-07
2.74664460365e-07
2.71402562509e-07
2.68346966216e-07
2.65318357425e-07
2.62416099076e-07
2.59650784125e-07
2.57123012791e-07
2.54644659627e-07
2.52318678787e-07
2.501533058e-07
2.48157516622e-07