/*--------------------------------*- C++ -*----------------------------------*\
| =========                 |                                                 |
| \\      /  F ield         | foam-extend: Open Source CFD                    |
|  \\    /   O peration     | Version:     4.1                                |
|   \\  /    A nd           | Web:         http://www.foam-extend.org         |
|    \\/     M anipulation  |                                                 |
\*---------------------------------------------------------------------------*/
FoamFile
{
    version     2.0;
    format      ascii;
    class       volScalarField;
    location    "0.0006";
    object      OPlus;
}
// * * * * * * * * * * * * * * * * * * * * * * * * * * * * * * * * * * * * * //

dimensions      [0 0 0 0 0 0 0];

internalField   nonuniform List<scalar> 
8400
(
6.45488964434e-195
6.45488964437e-195
6.45488964441e-195
6.45488964445e-195
6.45488964448e-195
6.45488964452e-195
6.45488964455e-195
6.45488964459e-195
6.45488964462e-195
6.45488964465e-195
6.45488964468e-195
6.45488964472e-195
6.45488964475e-195
6.45488964478e-195
6.45488964481e-195
6.45488964484e-195
6.45488964487e-195
6.4548896449e-195
6.45488964538e-195
6.45488967174e-195
6.45489120998e-195
6.45497766722e-195
6.45992870781e-195
6.56297526164e-195
9.33403700717e-73
1.0610770827e-12
0.000203698827122
0.0425599383212
0.0908630997049
0.120705857668
0.134916344326
0.140708178178
0.142746691994
0.14344239064
0.143738828906
0.143937238006
0.144107363306
0.144266869433
0.144421999807
0.144575752957
0.144730032253
0.144887830951
0.145028642587
0.145197499086
0.145372884892
0.145556494773
0.145749583004
0.145953323716
0.146167946176
0.14639361328
0.146630314946
0.146877846075
0.147135811166
0.147403451679
0.147680882348
0.147941666522
0.148229113114
0.148517637637
0.148805517905
0.149087712106
0.149359996879
0.14961969989
0.149862969165
0.150085875032
0.15028529168
0.150457637981
0.150599671824
0.150709108284
0.150784262251
0.150906325035
6.45488963406e-195
6.45488963408e-195
6.45488963409e-195
6.45488963411e-195
6.45488963412e-195
6.45488963414e-195
6.45488963415e-195
6.45488963416e-195
6.45488963418e-195
6.45488963419e-195
6.45488963421e-195
6.45488963422e-195
6.45488963423e-195
6.45488963424e-195
6.45488963426e-195
6.45488963427e-195
6.45488963428e-195
6.45488963433e-195
6.4548896367e-195
6.45488977381e-195
6.45489775703e-195
6.45534186352e-195
6.48040372352e-195
6.81274030281e-195
3.30913886707e-31
2.42845560713e-06
0.0116823927455
0.0645351524489
0.106481847613
0.129396313727
0.139382763398
0.143109765569
0.144299237317
0.14469154331
0.144879303452
0.145030888286
0.145178511375
0.145329163402
0.145484695878
0.145645628785
0.145812948252
0.145987298279
0.146169978561
0.146361075206
0.146560938553
0.146769910397
0.146988818054
0.147218684481
0.147459506851
0.147710539064
0.147971036703
0.148241028031
0.14851981654
0.148806298401
0.149099453637
0.149396199113
0.149693898991
0.14999067119
0.150283180283
0.150566830426
0.150838736899
0.151096439126
0.151336253823
0.151554093506
0.151746487776
0.151911333833
0.152046422402
0.152150020471
0.152220935811
0.152320747911
6.45488962945e-195
6.45488962946e-195
6.45488962947e-195
6.45488962948e-195
6.45488962949e-195
6.45488962949e-195
6.4548896295e-195
6.45488962951e-195
6.45488962952e-195
6.45488962953e-195
6.45488962954e-195
6.45488962954e-195
6.45488962955e-195
6.45488962956e-195
6.45488962957e-195
6.45488962957e-195
6.45488962959e-195
6.4548896298e-195
6.45488964209e-195
6.45489036684e-195
6.45493185645e-195
6.45731225621e-195
6.52631199803e-195
3.95754302786e-73
2.08011035973e-15
5.97829794097e-05
0.0339053272569
0.0850194457879
0.118826003384
0.135304602437
0.141989710577
0.14428176575
0.144945075889
0.145195141856
0.145334427348
0.14546010716
0.145587765863
0.145721342796
0.145862016811
0.146010138978
0.146188156509
0.146353949204
0.146529781571
0.146715392462
0.146911557455
0.147118904199
0.147337998683
0.14756845857
0.147809313333
0.148060939711
0.148323594724
0.148595657471
0.148874842172
0.149160182792
0.149451078718
0.149723596914
0.150018077837
0.150309186878
0.150592859849
0.150867245527
0.151130431877
0.151378240005
0.151606626349
0.151812955883
0.151994980275
0.152150508562
0.152277694448
0.152375029307
0.152441550513
0.152527641973
6.4548896268e-195
6.4548896268e-195
6.45488962681e-195
6.45488962682e-195
6.45488962682e-195
6.45488962683e-195
6.45488962684e-195
6.45488962684e-195
6.45488962685e-195
6.45488962685e-195
6.45488962686e-195
6.45488962686e-195
6.45488962687e-195
6.45488962688e-195
6.45488962688e-195
6.45488962689e-195
6.45488962691e-195
6.45488962793e-195
6.45488968756e-195
6.45489319287e-195
6.45509040804e-195
6.46640704341e-195
6.6543979756e-195
1.1259861118e-46
9.86192737092e-08
0.00266858755058
0.0537642726153
0.0998948755844
0.126474372483
0.1384407047
0.143020889054
0.144498287968
0.144936721143
0.145120630018
0.145258893458
0.145391869583
0.145527978257
0.14566941195
0.145817358982
0.145972641462
0.146136503001
0.146330422586
0.14651179222
0.146703324674
0.146905995419
0.147119952955
0.14734576713
0.147582878233
0.147830352067
0.148088509923
0.148357822613
0.14861245856
0.148896716288
0.149186412694
0.149479290965
0.14977312128
0.150066328609
0.150355367574
0.150636206602
0.150906953863
0.151165363742
0.151407395297
0.151629616391
0.15182984583
0.15200613994
0.152156499032
0.152279121453
0.152372731498
0.152436555293
0.152514860087
6.4548896251e-195
6.4548896251e-195
6.45488962511e-195
6.45488962511e-195
6.45488962512e-195
6.45488962512e-195
6.45488962513e-195
6.45488962513e-195
6.45488962513e-195
6.45488962514e-195
6.45488962514e-195
6.45488962515e-195
6.45488962515e-195
6.45488962516e-195
6.45488962516e-195
6.45488962517e-195
6.45488962523e-195
6.45488962846e-195
6.45488981696e-195
6.45490078777e-195
6.45551135992e-195
6.48976839402e-195
6.91476544448e-195
7.98590561597e-23
5.98935892114e-06
0.0165903872423
0.0696781021941
0.109687260438
0.130817164524
0.13982455028
0.143108036931
0.144113436295
0.144464073106
0.144649530666
0.144808206173
0.144964052074
0.145123104547
0.145286587194
0.145455756624
0.145630930351
0.145813685364
0.146004654281
0.146205533823
0.146416087146
0.146636660098
0.14686739697
0.147108890733
0.147361922615
0.147625358928
0.147897309701
0.148177845933
0.148466374592
0.148761061236
0.149061293043
0.149363218618
0.149663827724
0.149961784336
0.150255098611
0.150539927845
0.150813024799
0.151071779686
0.15131413267
0.151513815537
0.151714912961
0.151891307855
0.152041123237
0.15216240557
0.152254513575
0.152317327695
0.15239148709
6.45488962393e-195
6.45488962393e-195
6.45488962394e-195
6.45488962394e-195
6.45488962394e-195
6.45488962395e-195
6.45488962395e-195
6.45488962396e-195
6.45488962396e-195
6.45488962396e-195
6.45488962397e-195
6.45488962397e-195
6.45488962397e-195
6.45488962398e-195
6.45488962398e-195
6.45488962399e-195
6.45488962415e-195
6.45488963372e-195
6.45489020187e-195
6.45492307234e-195
6.45681194654e-195
6.51942767821e-195
2.81043392197e-73
3.88712994604e-16
4.20263976022e-05
0.0305357036742
0.0816889864436
0.116162894419
0.133160090002
0.140125954512
0.142574497756
0.143327523653
0.14365466053
0.143866768276
0.14405970277
0.144250042432
0.144441921581
0.144637263344
0.144836915805
0.145042436091
0.145254859656
0.145474646137
0.145702014995
0.145938227648
0.146184325335
0.14644026061
0.146705693665
0.146980621679
0.147265567459
0.147559578118
0.147859936302
0.148165699462
0.148476847326
0.148791217752
0.149107862537
0.149422674282
0.149710914288
0.150013401785
0.150305908147
0.150586617519
0.150852433077
0.151099427065
0.151324913373
0.151527744876
0.151706265303
0.15185811262
0.151981275911
0.152074680078
0.152137884324
0.152209143029
6.45488962309e-195
6.45488962309e-195
6.45488962309e-195
6.4548896231e-195
6.4548896231e-195
6.4548896231e-195
6.45488962311e-195
6.45488962311e-195
6.45488962311e-195
6.45488962312e-195
6.45488962312e-195
6.45488962312e-195
6.45488962313e-195
6.45488962313e-195
6.45488962313e-195
6.45488962314e-195
6.4548896236e-195
6.45488965033e-195
6.45489122205e-195
6.45498021138e-195
6.46009948489e-195
6.56648652601e-195
9.70686583987e-73
1.68763658692e-12
0.000224502554588
0.0433466453077
0.091132580658
0.120566441185
0.134278906577
0.139757823893
0.141620667886
0.142251789533
0.142586383161
0.14283586797
0.143070648094
0.143302705482
0.143536247127
0.143771743781
0.144009588936
0.144250960191
0.144497570636
0.144750680384
0.145011130813
0.14528045837
0.14555787855
0.145843060787
0.146137141557
0.146440633524
0.146751849541
0.147070236174
0.147373866739
0.14770356638
0.148036851543
0.148371677707
0.148705237974
0.149036363438
0.149362107914
0.149678248563
0.149983204272
0.150274385233
0.150548599966
0.150803947177
0.151037195217
0.151246648379
0.151407261807
0.151563667896
0.151690201164
0.151786324195
0.151851241158
0.151922147132
6.45488962246e-195
6.45488962246e-195
6.45488962246e-195
6.45488962247e-195
6.45488962247e-195
6.45488962247e-195
6.45488962248e-195
6.45488962248e-195
6.45488962248e-195
6.45488962248e-195
6.45488962249e-195
6.45488962249e-195
6.45488962249e-195
6.45488962249e-195
6.4548896225e-195
6.45488962252e-195
6.45488962376e-195
6.45488969625e-195
6.4548939508e-195
6.45513369727e-195
6.46890786316e-195
6.68648259399e-195
1.82292323302e-46
2.59524600839e-07
0.00396813061927
0.0545944111904
0.0984434043619
0.123378619928
0.134648661632
0.138982904219
0.140446326023
0.140978941974
0.141305746496
0.141613583608
0.141890936117
0.142166024286
0.142442647166
0.142721037307
0.143000414466
0.143282226464
0.143569619105
0.143862575709
0.144159985819
0.1444644376
0.144755473562
0.145075359616
0.145403625908
0.14573829422
0.146079006938
0.14642677527
0.146779068489
0.147133945178
0.147491106163
0.147848568539
0.148204642759
0.148555344954
0.148898610757
0.149211082026
0.149531815397
0.149836473155
0.150123417547
0.150390138323
0.15063318743
0.150850290836
0.151040251043
0.151201406533
0.15133214612
0.151431311347
0.151498303718
0.151568914751
6.45488962198e-195
6.45488962198e-195
6.45488962198e-195
6.45488962198e-195
6.45488962199e-195
6.45488962199e-195
6.45488962199e-195
6.45488962199e-195
6.45488962199e-195
6.454889622e-195
6.454889622e-195
6.454889622e-195
6.454889622e-195
6.45488962201e-195
6.45488962201e-195
6.45488962206e-195
6.45488962492e-195
6.45488979149e-195
6.45489947312e-195
6.45543792583e-195
6.48563530856e-195
6.87155149499e-195
5.81977290032e-26
3.81034251897e-06
0.0132928172502
0.064496537078
0.103985511749
0.125106673152
0.134295697534
0.137810279112
0.139003231013
0.139512327816
0.139874255403
0.140205136453
0.140528413958
0.140849446722
0.141169529665
0.141492251994
0.141816415661
0.142141579227
0.142471170498
0.142805921513
0.143143757233
0.143487175926
0.143837195907
0.144193919418
0.144556934337
0.144924785674
0.145299381728
0.145678923663
0.146060405084
0.146445549277
0.1468081269
0.147191024835
0.147570865875
0.147944693447
0.148308609869
0.148661749806
0.149000404609
0.14932063944
0.149621370807
0.149900198379
0.150154533566
0.150358962954
0.15055765008
0.150725472542
0.150861653506
0.150964899931
0.151034651932
0.151105538417
6.45488962159e-195
6.45488962159e-195
6.4548896216e-195
6.4548896216e-195
6.4548896216e-195
6.4548896216e-195
6.45488962161e-195
6.45488962161e-195
6.45488962161e-195
6.45488962161e-195
6.45488962161e-195
6.45488962162e-195
6.45488962162e-195
6.45488962162e-195
6.45488962162e-195
6.45488962172e-195
6.45488962745e-195
6.4548899663e-195
6.45490993634e-195
6.45605461653e-195
6.50843047818e-195
9.72485958475e-74
5.97755171788e-18
1.9646136823e-05
0.0235165719514
0.073272088828
0.108137780633
0.12601250308
0.133520435154
0.136316143837
0.137348642671
0.137864194211
0.138272081755
0.138655563429
0.139032576502
0.139404585416
0.139774844104
0.140145146691
0.140515253394
0.140886468429
0.141259733618
0.141638291155
0.142019617407
0.142404758388
0.142796181223
0.143192036723
0.143593031305
0.143976595347
0.144385164632
0.144797669977
0.14521261755
0.145627345759
0.146041388977
0.146451461523
0.146855626361
0.147252913608
0.147618692483
0.147992107783
0.148348672746
0.148687037668
0.149004227718
0.149296587757
0.149562540949
0.149799912111
0.15000679571
0.15018155403
0.150323831481
0.150431827952
0.15050508471
0.150577218057
6.45488962128e-195
6.45488962128e-195
6.45488962129e-195
6.45488962129e-195
6.45488962129e-195
6.45488962129e-195
6.45488962129e-195
6.4548896213e-195
6.4548896213e-195
6.4548896213e-195
6.4548896213e-195
6.4548896213e-195
6.45488962131e-195
6.45488962131e-195
6.45488962131e-195
6.4548896216e-195
6.45488963799e-195
6.45489059828e-195
6.45494509167e-195
6.4580511732e-195
6.53843491867e-195
5.35275213992e-73
1.03381351876e-14
7.57817776057e-05
0.0336496191225
0.0809472581842
0.111345514527
0.126145197234
0.132300859013
0.134601822975
0.135512252338
0.13605528925
0.136519965887
0.136961744772
0.137395996678
0.13782347347
0.1382467372
0.138667900491
0.139089432688
0.139509607238
0.139931392691
0.140355317799
0.140759750758
0.141188819582
0.141622381484
0.142059652221
0.142499455709
0.142942082612
0.143388922923
0.143836310767
0.144284438236
0.14471067879
0.145154053104
0.145592765381
0.146024821459
0.146447468467
0.14685675536
0.147252524303
0.147630137965
0.14796255112
0.14829600671
0.148603104674
0.14888332883
0.149133259274
0.149350294763
0.149533135448
0.149680831259
0.149792787369
0.149868888513
0.149941467376
6.45488962103e-195
6.45488962103e-195
6.45488962103e-195
6.45488962103e-195
6.45488962103e-195
6.45488962104e-195
6.45488962104e-195
6.45488962104e-195
6.45488962104e-195
6.45488962104e-195
6.45488962105e-195
6.45488962105e-195
6.45488962105e-195
6.45488962105e-195
6.45488962106e-195
6.45488962175e-195
6.45488966206e-195
6.45489202398e-195
6.45502548709e-195
6.46270676311e-195
6.60562657835e-195
4.53301063285e-48
8.31340809306e-10
0.000389434760748
0.0438650380351
0.0876177778151
0.113624550502
0.125822949352
0.130801288604
0.132676014229
0.133528008799
0.134110267556
0.134633989521
0.135138266821
0.135631324218
0.136117562276
0.136599200922
0.137054756258
0.137527974053
0.138001121657
0.138472062306
0.138944240686
0.139417534033
0.139891363952
0.14036738649
0.14084807328
0.141307580882
0.14179112866
0.142274970406
0.142759556296
0.143243461716
0.143723673542
0.144198705407
0.144669010756
0.145105819513
0.145554396714
0.145988436714
0.146406397812
0.14680337291
0.14717790159
0.147527401211
0.147851580107
0.148120786086
0.148383082366
0.148610361891
0.148801360698
0.148955454338
0.149072589885
0.14915254445
0.149226305348
6.45488962081e-195
6.45488962082e-195
6.45488962082e-195
6.45488962082e-195
6.45488962082e-195
6.45488962082e-195
6.45488962082e-195
6.45488962083e-195
6.45488962083e-195
6.45488962083e-195
6.45488962083e-195
6.45488962083e-195
6.45488962083e-195
6.45488962084e-195
6.45488962087e-195
6.45488962273e-195
6.45488973085e-195
6.45489600552e-195
6.4552446415e-195
6.4748412084e-195
6.75600631356e-195
1.19063066698e-34
8.36656250148e-07
0.00573125103154
0.0538391899728
0.0931013519077
0.115110848116
0.125041141192
0.129062096678
0.130612884872
0.131428669792
0.132052657685
0.132634155015
0.133199085687
0.13373601953
0.134282842675
0.134821669875
0.135356628172
0.135885505988
0.136411849093
0.136934975848
0.137456898808
0.137957549868
0.138480320538
0.139003089286
0.139525590337
0.14004959215
0.140574213413
0.141097525705
0.141597076232
0.142116439503
0.142629928193
0.143139540065
0.14363909843
0.144127416197
0.144603952987
0.145039469454
0.145481175809
0.145899203704
0.146292962468
0.14666029366
0.146999812795
0.147307037068
0.147579558304
0.147816667788
0.147992560819
0.148155171966
0.148277942181
0.1483612371
0.148435409572
6.45488962063e-195
6.45488962063e-195
6.45488962064e-195
6.45488962064e-195
6.45488962064e-195
6.45488962064e-195
6.45488962064e-195
6.45488962064e-195
6.45488962065e-195
6.45488962065e-195
6.45488962065e-195
6.45488962065e-195
6.45488962065e-195
6.45488962065e-195
6.45488962073e-195
6.45488962513e-195
6.45488987621e-195
6.4549041692e-195
6.45568413595e-195
6.4980566427e-195
7.00635602173e-195
9.1796797717e-21
7.67637739312e-06
0.015741307155
0.0630222370776
0.0975941659422
0.115779284492
0.123830463116
0.127058162953
0.128387792581
0.129207390849
0.129887165243
0.130512869577
0.131144846499
0.13176321081
0.13237210905
0.132971045987
0.133564441973
0.134130230999
0.134712466647
0.135290449566
0.135864990803
0.136435892956
0.137006881792
0.137576553404
0.138123012932
0.13869052606
0.13925576335
0.13981992258
0.14037984722
0.140935178759
0.141462480361
0.142003566022
0.142533105386
0.14305141241
0.143554352362
0.144038842879
0.144479830048
0.14492039742
0.145334310874
0.14572000366
0.146075463405
0.146396381636
0.146681386545
0.146928658332
0.147136256014
0.147304633721
0.147408153533
0.147496603845
0.147571914118
6.45488962048e-195
6.45488962048e-195
6.45488962048e-195
6.45488962048e-195
6.45488962048e-195
6.45488962049e-195
6.45488962049e-195
6.45488962049e-195
6.45488962049e-195
6.45488962049e-195
6.45488962049e-195
6.45488962049e-195
6.4548896205e-195
6.4548896205e-195
6.45488962072e-195
6.45488963348e-195
6.45489037386e-195
6.4549321945e-195
6.45727800198e-195
6.52877863048e-195
3.49916915596e-73
7.88997043933e-16
4.04167550837e-05
0.0266616258714
0.071353153611
0.100919597283
0.115755291133
0.122206149136
0.124813729338
0.126025994412
0.126859258871
0.127604311389
0.128320487689
0.129018850503
0.129704678758
0.130356120381
0.131019311315
0.131671961741
0.132315335643
0.132954145543
0.133586385156
0.134192916621
0.134817916093
0.135438270067
0.13605515354
0.136670647037
0.137259473923
0.137867338841
0.138472697848
0.139070262108
0.139661873259
0.140247151132
0.140797653552
0.14135931925
0.141905641725
0.142435092129
0.142946183091
0.143433224974
0.143870132319
0.144304954732
0.144708697539
0.145078947193
0.145414121938
0.145711677221
0.14597023825
0.146187492474
0.146363198701
0.146498156862
0.14656409336
0.146666655608
6.45488962034e-195
6.45488962034e-195
6.45488962035e-195
6.45488962035e-195
6.45488962035e-195
6.45488962035e-195
6.45488962035e-195
6.45488962035e-195
6.45488962035e-195
6.45488962036e-195
6.45488962036e-195
6.45488962036e-195
6.45488962036e-195
6.45488962037e-195
6.45488962102e-195
6.45488965843e-195
6.45489180341e-195
6.45501046844e-195
6.4616565745e-195
6.59053943101e-195
1.16971185737e-72
1.43946857001e-11
0.000209330106965
0.0377862839202
0.0785845810115
0.10334354279
0.115189301147
0.120264556221
0.122423004214
0.123553622134
0.124439463988
0.125258510065
0.126048162929
0.126797784419
0.127551248636
0.128289966872
0.129015729741
0.129730284056
0.130412033033
0.131108556646
0.131796936602
0.132478110427
0.133131165786
0.133803316243
0.134467698962
0.135130013427
0.13578605823
0.136414475503
0.137059868607
0.137698447125
0.138326450342
0.13894630588
0.139528582081
0.140122810567
0.140698117935
0.141254329895
0.141788757592
0.142300185018
0.142758471193
0.143212125955
0.1436328911
0.144018481075
0.144367467821
0.14467751876
0.144945546197
0.145171557422
0.145354453864
0.145494093813
0.145562207904
0.145638696437
6.45488962022e-195
6.45488962023e-195
6.45488962023e-195
6.45488962023e-195
6.45488962023e-195
6.45488962023e-195
6.45488962023e-195
6.45488962023e-195
6.45488962024e-195
6.45488962024e-195
6.45488962024e-195
6.45488962024e-195
6.45488962024e-195
6.45488962028e-195
6.45488962239e-195
6.45488974347e-195
6.45489666827e-195
6.455276408e-195
6.47625240336e-195
6.77403943505e-195
1.28922931857e-34
7.96289581373e-07
0.00456674654785
0.0488133814473
0.0847340428279
0.104788853809
0.114143152108
0.11813528664
0.119920693985
0.121018111228
0.121956381516
0.122826405863
0.123689001602
0.124532589486
0.12535649501
0.126142097229
0.126932146712
0.127709259785
0.128473048439
0.12920490054
0.12994854949
0.130685050522
0.131412310726
0.132112224049
0.13282556725
0.133533562456
0.134234014157
0.134927798719
0.135590559819
0.136268890744
0.136934876434
0.137588486865
0.138228127048
0.138827869599
0.139432567972
0.140015424002
0.140575099675
0.141109319667
0.141588119469
0.142060653208
0.142497630824
0.14289854626
0.143260539647
0.143581121014
0.143859305474
0.14409505732
0.144258633667
0.144403453095
0.144501824438
0.144578183423
6.45488962012e-195
6.45488962012e-195
6.45488962012e-195
6.45488962012e-195
6.45488962013e-195
6.45488962013e-195
6.45488962013e-195
6.45488962013e-195
6.45488962013e-195
6.45488962013e-195
6.45488962013e-195
6.45488962013e-195
6.45488962014e-195
6.45488962025e-195
6.45488962625e-195
6.45488996132e-195
6.45490856395e-195
6.4559089905e-195
6.50769322378e-195
3.69481078442e-74
4.51317022274e-19
1.06313686732e-05
0.0159147554544
0.0589571378746
0.0893851469219
0.105351255743
0.112602703837
0.115744848351
0.117316735935
0.11842640399
0.119410562887
0.120372303933
0.121308741926
0.122199710538
0.123092994707
0.12396451516
0.124820688668
0.125638285984
0.126464310665
0.127276646692
0.128055149527
0.128844931897
0.129624549271
0.130396188809
0.131135188491
0.131888541711
0.132634561838
0.133370423409
0.134071895645
0.134788339537
0.135490279233
0.136178796825
0.136827356005
0.137481053424
0.138114390972
0.138723964791
0.139309560737
0.13986505599
0.140362901884
0.140854812752
0.141309252572
0.141724466828
0.142099159233
0.14243102569
0.142719367959
0.142935351046
0.143132480905
0.143281693649
0.143383482531
0.143460006067
6.45488962003e-195
6.45488962003e-195
6.45488962003e-195
6.45488962003e-195
6.45488962003e-195
6.45488962003e-195
6.45488962004e-195
6.45488962004e-195
6.45488962004e-195
6.45488962004e-195
6.45488962004e-195
6.45488962004e-195
6.45488962005e-195
6.45488962048e-195
6.45488964493e-195
6.45489102992e-195
6.45496700463e-195
6.45914434685e-195
6.55682121646e-195
6.75514462314e-73
3.35310688214e-14
7.45871429988e-05
0.0283509264155
0.0677825497464
0.0927216207035
0.105076147296
0.110658720313
0.113183899936
0.114612717353
0.115769439382
0.11684566046
0.117883887942
0.118873441668
0.119858013798
0.120796500414
0.121735336556
0.12265405727
0.123534083884
0.124419032567
0.125288676851
0.1261436417
0.126966178906
0.127797614413
0.128618225235
0.12940499721
0.130205691232
0.130993678097
0.131770310241
0.132512978751
0.133265621469
0.134002776691
0.134726381682
0.135403648627
0.136088255374
0.13674827969
0.137383265098
0.137991742731
0.138543965132
0.13908887318
0.139597123509
0.14006736444
0.140497298252
0.140885959113
0.141201580248
0.14149978871
0.141750398181
0.141953071433
0.142107201276
0.142212662201
0.142289895625
6.45488961995e-195
6.45488961995e-195
6.45488961995e-195
6.45488961995e-195
6.45488961995e-195
6.45488961995e-195
6.45488961995e-195
6.45488961995e-195
6.45488961995e-195
6.45488961996e-195
6.45488961996e-195
6.45488961996e-195
6.45488961999e-195
6.45488962167e-195
6.4548897164e-195
6.45489502482e-195
6.45518168405e-195
6.47081240776e-195
6.71369080939e-195
1.78456694328e-46
1.71682258413e-07
0.00107925808723
0.0407909885547
0.0751257603762
0.0947473144629
0.104156920895
0.108436499589
0.110513841988
0.111896255633
0.113108367346
0.114240674185
0.115354514419
0.116439059558
0.117473872576
0.118501631518
0.119485435731
0.120466083926
0.121428301619
0.122348726184
0.123276018287
0.124185797046
0.125058689428
0.125942077862
0.126811174833
0.127644866085
0.128489422644
0.129320135688
0.130139797098
0.130919448807
0.131708224263
0.132479631184
0.133235036981
0.133942370802
0.134654180354
0.135342548602
0.136001921703
0.136605702301
0.137203997982
0.137766939048
0.138292147243
0.138777291127
0.139221079483
0.139594407083
0.139949457888
0.140256404693
0.140514629614
0.140723465967
0.140882454746
0.140991655898
0.14106970564
6.45488961987e-195
6.45488961987e-195
6.45488961987e-195
6.45488961987e-195
6.45488961988e-195
6.45488961988e-195
6.45488961988e-195
6.45488961988e-195
6.45488961988e-195
6.45488961988e-195
6.45488961988e-195
6.45488961988e-195
6.45488962e-195
6.45488962626e-195
6.45488997121e-195
6.45490885288e-195
6.45590126704e-195
6.507079387e-195
9.80794463209e-75
3.96210943893e-20
7.81810465677e-06
0.0122561530122
0.0523386789836
0.0806206232088
0.095671484504
0.102728830095
0.105997943479
0.107799923079
0.109182641699
0.110435656053
0.111659570478
0.112826924535
0.113979672087
0.115082128859
0.116176622888
0.11724465592
0.11826749582
0.11928940062
0.120267339155
0.121247492708
0.122212451585
0.123136298072
0.124066564673
0.124984279551
0.125861092996
0.126748370881
0.127622254662
0.128452867067
0.129296185015
0.130120711044
0.130926289233
0.131684543572
0.132448363271
0.133187553824
0.13389885711
0.134555227405
0.135206593284
0.135823963515
0.136404340168
0.136945673625
0.137416539607
0.137873555952
0.138284597403
0.138648371827
0.138963427263
0.139228904453
0.139443808102
0.139607514215
0.139720959792
0.139772130325
6.4548896198e-195
6.4548896198e-195
6.45488961981e-195
6.45488961981e-195
6.45488961981e-195
6.45488961981e-195
6.45488961981e-195
6.45488961981e-195
6.45488961981e-195
6.45488961981e-195
6.45488961981e-195
6.45488961983e-195
6.45488962039e-195
6.454889652e-195
6.4548914084e-195
6.45498596572e-195
6.46008795517e-195
6.57120013991e-195
7.93624944978e-73
8.88880334871e-14
7.75463802806e-05
0.0262692980114
0.0619915102786
0.0843220565324
0.0954985400054
0.100776251382
0.103375967528
0.105037772956
0.106458212092
0.107799025109
0.109076222314
0.110311432529
0.11153344862
0.112699696821
0.113858240228
0.114986954619
0.116069372503
0.117147016746
0.11818249678
0.119216414098
0.120231781937
0.121203779676
0.122182310655
0.123119202999
0.124064468932
0.124992906076
0.125904438182
0.126773797292
0.127650785627
0.128507890995
0.129317967968
0.130135175484
0.130924885251
0.131689313604
0.132396219172
0.133101298794
0.133772462486
0.134408894489
0.1349753425
0.135532049868
0.136045060557
0.136513005253
0.136933806885
0.137307482423
0.137600261985
0.137874026271
0.138094778507
0.138263130276
0.138379557132
0.138458972014
6.45488961974e-195
6.45488961974e-195
6.45488961974e-195
6.45488961975e-195
6.45488961975e-195
6.45488961975e-195
6.45488961975e-195
6.45488961975e-195
6.45488961975e-195
6.45488961975e-195
6.45488961975e-195
6.4548896198e-195
6.4548896226e-195
6.45488977758e-195
6.45489832717e-195
6.45535228818e-195
6.47943233037e-195
6.81387729317e-195
1.46967754639e-34
7.08434014194e-07
0.00228338400621
0.0397432757815
0.0696520948996
0.0864208784399
0.0945913512126
0.0985259689488
0.100682234776
0.102304221628
0.103760926388
0.105175149919
0.106521207902
0.107846109624
0.109111522397
0.110362753204
0.111560062875
0.112746502632
0.11388537524
0.115018099163
0.116103166016
0.117189488952
0.118228077225
0.11927134891
0.120295580532
0.121275434356
0.122263019962
0.123229921785
0.124152021378
0.125080937124
0.125992838942
0.126852632732
0.127719400768
0.128562421472
0.129350532051
0.130137943968
0.130894791255
0.131620087509
0.132279187004
0.132931663579
0.1335436231
0.134113563254
0.134638297429
0.135117707312
0.135517915122
0.135899437047
0.136229445017
0.136507805342
0.136733641514
0.136906374886
0.137025862562
0.137105096548
6.45488961969e-195
6.45488961969e-195
6.45488961969e-195
6.45488961969e-195
6.45488961969e-195
6.45488961969e-195
6.45488961969e-195
6.45488961969e-195
6.45488961969e-195
6.4548896197e-195
6.4548896197e-195
6.45488961997e-195
6.45488963481e-195
6.45489046406e-195
6.45493566869e-195
6.45736120763e-195
6.53408044031e-195
2.93663938126e-73
1.57274929608e-16
2.10708661764e-05
0.0160229986662
0.0513992618303
0.074887141245
0.0871006925647
0.0930587789751
0.0960517933899
0.0979904562172
0.0996023959653
0.101137056265
0.102598295156
0.10400982307
0.105399544097
0.10672820303
0.108039412629
0.109294175025
0.110512841859
0.111725420047
0.112910293542
0.114044205693
0.115177176972
0.116261901041
0.117348472113
0.118389587973
0.119434295424
0.120458530992
0.121436609826
0.122420000177
0.123385256243
0.124297426877
0.125214665818
0.126107720005
0.126946033238
0.127785370734
0.128593435415
0.129370300457
0.130081714936
0.130788943227
0.131455737325
0.132081318005
0.132630295848
0.133166940903
0.133655101258
0.134094362714
0.134483317171
0.134819963107
0.135104062183
0.135302016699
0.135479857089
0.135603311187
0.135684034494
6.45488961964e-195
6.45488961964e-195
6.45488961964e-195
6.45488961964e-195
6.45488961964e-195
6.45488961964e-195
6.45488961964e-195
6.45488961964e-195
6.45488961964e-195
6.45488961964e-195
6.45488961968e-195
6.45488962134e-195
6.45488971339e-195
6.45489477576e-195
6.45516303206e-195
6.46933410803e-195
6.6969496223e-195
1.0951606614e-46
2.32464293217e-08
0.000275869140516
0.0308510080336
0.0606136123136
0.0779883733299
0.0867189580415
0.0910396687279
0.09347497138
0.095314681781
0.0969655219834
0.0985618124141
0.100085009417
0.101560450184
0.103007012638
0.104392786405
0.105739380223
0.10706995438
0.108340747363
0.10960412949
0.110810305118
0.112014767144
0.113166706491
0.114318185574
0.115418430132
0.116522989822
0.117606144735
0.118637342088
0.11967588225
0.120691373591
0.121657041787
0.122626009701
0.123570200598
0.124457920668
0.125348513946
0.126208388911
0.127005407425
0.127800057047
0.12855738936
0.129278031329
0.12992352535
0.130561545364
0.131153185441
0.131697604735
0.132194598521
0.132606572228
0.133002473264
0.133344799521
0.133633864727
0.133868689323
0.134049482555
0.134176677947
0.134258207466
6.45488961959e-195
6.45488961959e-195
6.45488961959e-195
6.45488961959e-195
6.45488961959e-195
6.45488961959e-195
6.45488961959e-195
6.45488961959e-195
6.4548896196e-195
6.4548896196e-195
6.45488961978e-195
6.45488962973e-195
6.45489017327e-195
6.45491992439e-195
6.45651368112e-195
6.52217922467e-195
1.24383440077e-73
2.86731480383e-18
1.00572969666e-05
0.0102781030129
0.0440358960394
0.0670238633398
0.0793972949394
0.085547930324
0.0887792466035
0.0909089034396
0.0927147342845
0.0944154835461
0.0960688070884
0.0976508630263
0.0991803071455
0.100683054737
0.102123153063
0.103517344818
0.104894719319
0.106215050048
0.107522633385
0.108775951616
0.109995528396
0.111213051037
0.112404231373
0.113541947525
0.114681437951
0.115768226236