/*--------------------------------*- C++ -*----------------------------------*\
| =========                 |                                                 |
| \\      /  F ield         | foam-extend: Open Source CFD                    |
|  \\    /   O peration     | Version:     4.1                                |
|   \\  /    A nd           | Web:         http://www.foam-extend.org         |
|    \\/     M anipulation  |                                                 |
\*---------------------------------------------------------------------------*/
FoamFile
{
    version     2.0;
    format      ascii;
    class       volScalarField;
    location    "0.0006";
    object      p;
}
// * * * * * * * * * * * * * * * * * * * * * * * * * * * * * * * * * * * * * //

dimensions      [1 -1 -2 0 0 0 0];

internalField   nonuniform List<scalar> 
8400
(
66.7281849831
66.7281849832
66.7281849832
66.7281849833
66.7281849833
66.7281849834
66.7281849834
66.7281849834
66.7281849835
66.7281849835
66.7281849836
66.7281849836
66.7281849837
66.7281849837
66.7281849837
66.7281849838
66.7281849838
66.7281849839
66.7281849845
66.7281850191
66.7281870373
66.7283004721
66.7347964053
66.8699969788
139.191437907
1266.63912175
6305.6984046
27259.0419046
69347.7523267
135257.980638
203511.677863
247501.343974
265139.428254
270009.364318
270992.209013
271042.628843
270896.487693
270721.009457
270553.22666
270400.824907
270264.752753
270149.870555
270030.448856
269946.657869
269868.982142
269800.830993
269742.259736
269693.813842
269655.165772
269625.911448
269603.094855
269583.50176
269566.909948
269555.704801
269559.433715
269550.383851
269571.00133
269591.057598
269614.651786
269637.865659
269661.15637
269687.723613
269720.025522
269755.892306
269794.026192
269833.303402
269874.231168
269918.13666
269968.249184
270912.830022
66.7281849696
66.7281849697
66.7281849697
66.7281849697
66.7281849697
66.7281849697
66.7281849698
66.7281849698
66.7281849698
66.7281849698
66.7281849698
66.7281849698
66.7281849699
66.7281849699
66.7281849699
66.7281849699
66.7281849699
66.72818497
66.7281849731
66.728185153
66.7281956273
66.72877831
66.7616603203
67.1976971837
455.758377628
2781.74185067
13464.4899689
41091.6518892
94177.8637997
165575.679229
227088.8026
259710.314688
270973.701356
274161.033884
275235.480132
275837.034488
276325.421305
276776.468778
277206.325843
277618.686182
278014.46526
278394.229652
278759.166057
279108.231683
279441.178564
279757.984312
280058.971452
280346.387889
280620.778392
280881.291776
281126.338182
281355.324944
281569.267619
281770.350804
281961.929203
282143.862134
282315.548104
282476.884148
282626.386024
282762.232301
282885.402975
282998.517632
283102.53681
283196.774897
283280.464054
283354.107305
283419.388098
283478.522688
283533.817679
284290.89515
66.7281849636
66.7281849636
66.7281849636
66.7281849636
66.7281849636
66.7281849636
66.7281849637
66.7281849637
66.7281849637
66.7281849637
66.7281849637
66.7281849637
66.7281849637
66.7281849637
66.7281849637
66.7281849638
66.7281849638
66.7281849641
66.7281849802
66.7281859311
66.7282403669
66.7313635321
66.8218935335
96.2174157616
970.157073757
4846.70170732
22610.624151
60430.6006858
123983.061958
195336.672369
245322.690917
266918.891591
273449.896801
275413.114248
276279.30744
276905.413037
277460.226005
277977.818754
278465.782185
278921.205308
279370.953262
279774.574228
280161.240032
280527.180714
280872.538783
281197.998667
281505.017694
281794.089854
282066.182527
282321.765977
282560.94804
282781.980559
282985.403868
283174.406201
283358.506224
283512.329981
283676.941423
283822.685412
283954.292931
284073.319977
284182.369823
284281.463215
284370.498095
284448.789499
284516.614225
284576.208285
284629.904182
284678.994723
284724.69224
285345.632758
66.7281849601
66.7281849601
66.7281849601
66.7281849601
66.7281849601
66.7281849602
66.7281849602
66.7281849602
66.7281849602
66.7281849602
66.7281849602
66.7281849602
66.7281849602
66.7281849602
66.7281849602
66.7281849602
66.7281849603
66.7281849616
66.7281850398
66.7281896389
66.7284483919
66.7432962013
66.9899466802
240.200466864
2070.51859389
9557.32920136
33453.7096679
81245.7694798
151086.434131
217328.14499
255875.822615
270007.052519
274019.40848
275356.559198
276098.655726
276692.674299
277229.702953
277729.316869
278196.572873
278633.252218
279041.549975
279443.358694
279788.002811
280113.264558
280421.824331
280709.948781
280979.453314
281230.923712
281467.059299
281690.391403
281903.578239
282073.055881
282248.418074
282407.405075
282556.654742
282694.619685
282822.205754
282938.890479
283045.75836
283143.205474
283231.1346
283307.94585
283374.94258
283434.095865
283487.019046
283534.860341
283577.685098
283615.929595
283651.224689
284189.183573
66.7281849579
66.7281849579
66.7281849579
66.7281849579
66.7281849579
66.7281849579
66.7281849579
66.7281849579
66.7281849579
66.7281849579
66.7281849579
66.7281849579
66.728184958
66.728184958
66.728184958
66.728184958
66.728184958
66.7281849623
66.7281852096
66.7281996037
66.729000695
66.7739470856
67.3315576298
590.303095992
3161.14653631
15389.956546
45362.8057059
101344.239052
173449.91789
232268.963156
261485.095168
270950.48623
273620.996288
274634.596976
275288.537189
275841.440799
276345.300469
276811.182199
277243.47566
277644.415488
278016.498319
278361.480992
278682.703625
278980.556357
279256.088965
279510.207117
279745.130123
279964.729336
280168.660292
280356.779051
280529.675317
280689.73703
280838.4458
280978.17723
281104.506342
281215.911385
281315.931267
281410.504694
281499.587131
281579.250574
281646.369209
281710.027168
281747.24901
281805.747789
281853.93679
281893.83274
281924.516978
281949.87336
281975.509735
282462.791272
66.7281849563
66.7281849564
66.7281849564
66.7281849564
66.7281849564
66.7281849564
66.7281849564
66.7281849564
66.7281849564
66.7281849564
66.7281849564
66.7281849564
66.7281849564
66.7281849564
66.7281849564
66.7281849564
66.7281849566
66.7281849692
66.7281857146
66.7282288418
66.7307071088
66.8128610724
87.6627071664
907.972736843
4510.15865286
21266.7300315
57693.7034087
119964.565364
191269.901071
242104.159005
264194.2094
270757.600531
272669.028517
273492.936946
274077.882925
274586.258743
275050.897245
275480.267038
275876.675791
276242.874263
276581.184888
276893.71606
277182.960516
277450.033611
277696.208536
277922.145008
278130.283191
278323.514331
278503.578088
278668.71628
278816.793992
278950.29292
279075.283274
279193.297201
279303.287358
279405.176302
279474.436145
279556.424334
279628.099828
279694.091733
279751.720482
279799.634567
279840.932451
279879.683037
279917.273764
279950.679024
279976.576198
279994.728812
280008.438254
280450.11815
66.7281849552
66.7281849552
66.7281849553
66.7281849553
66.7281849553
66.7281849553
66.7281849553
66.7281849553
66.7281849553
66.7281849553
66.7281849553
66.7281849553
66.7281849553
66.7281849553
66.7281849553
66.7281849553
66.7281849559
66.728184991
66.7281870531
66.7283038102
66.7350204706
66.8746038768
142.474444128
1296.92984028
6443.21626967
27757.5925854
70405.6428346
137077.507048
205397.090264
248490.755354
265177.341305
269876.819212
271312.693529
272005.244373
272532.403695
272998.474287
273425.675898
273818.910261
274180.809682
274513.15327
274818.256104
275099.097048
275357.793677
275597.152691
275816.763046
276017.471699
276201.6714
276372.592636
276529.555255
276676.764704
276788.816702
276907.909375
277015.060149
277116.11124
277208.891032
277291.421465
277363.602203
277428.027321
277487.209759
277539.9799
277582.434577
277616.331342
277643.714799
277677.088258
277691.722273
277727.724325
277750.810593
277765.739077
277774.415031
278189.492337
66.7281849544
66.7281849544
66.7281849544
66.7281849544
66.7281849544
66.7281849544
66.7281849544
66.7281849544
66.7281849544
66.7281849545
66.7281849545
66.7281849545
66.7281849545
66.7281849545
66.7281849545
66.7281849545
66.7281849561
66.7281850512
66.7281906334
66.7285051888
66.7465773617
67.0320427877
280.825917132
2227.1546522
10374.6307658
34897.2253855
83390.0797606
152682.466776
216626.499513
252495.106318
265071.835678
268474.315855
269569.940187
270187.277977
270658.421647
271083.044043
271473.212505
271832.268269
272162.354692
272464.768666
272741.949145
272994.85153
273225.592002
273442.581298
273623.289887
273807.522711
273971.760148
274120.962473
274255.648262
274377.594028
274486.142174
274583.054136
274671.410579
274752.750961
274829.300385
274898.409905
274964.442249
275002.962501
275053.088549
275091.394768
275124.849489
275153.548256
275176.061009
275194.406253
275211.75844
275228.961691
275243.730845
275252.589502
275255.342238
275647.515342
66.7281849538
66.7281849538
66.7281849538
66.7281849538
66.7281849538
66.7281849538
66.7281849538
66.7281849538
66.7281849538
66.7281849538
66.7281849538
66.7281849538
66.7281849538
66.7281849538
66.7281849538
66.7281849539
66.7281849576
66.7281851762
66.7281978788
66.728904347
66.7685243373
67.2748594625
524.461388169
2971.11928105
14342.5134043
42868.5255522
96684.9487498
167031.093688
225405.502248
254753.156545
264161.891719
266670.824092
267548.855737
268069.962374
268495.14023
268876.799109
269225.179638
269546.452149
269840.82317
270109.446852
270354.987309
270579.19591
270782.743476
270968.674101
271138.285468
271292.513039
271431.786094
271557.180126
271672.0747
271776.120025
271867.600584
271955.345689
272013.090893
272083.393894
272141.909724
272196.755254
272247.238192
272290.754317
272323.909733
272348.35687
272371.021554
272392.016424
272412.021435
272406.669992
272418.355553
272422.95129
272427.725043
272427.391831
272422.052447
272790.363926
66.7281849533
66.7281849533
66.7281849533
66.7281849533
66.7281849533
66.7281849533
66.7281849533
66.7281849533
66.7281849533
66.7281849533
66.7281849533
66.7281849533
66.7281849533
66.7281849533
66.7281849533
66.7281849535
66.728184961
66.7281854055
66.7282116069
66.7297134661
66.798432373
74.35508497
794.008634104
3904.64102147
18632.4808198
51813.4697202
110282.574235
180163.520842
232243.489141
255694.914121
262686.082012
264542.84476
265246.050903
265695.738518
266071.675312
266407.748718
266713.665011
266993.821529
267249.190149
267482.028949
267692.754
267885.202184
268058.271471
268214.191455
268357.121063
268489.632086
268613.72696
268695.686163
268786.948104
268870.648478
268947.056011
269012.664634
269069.115121
269116.203408
269157.8569
269202.069
269223.885787
269259.419547
269281.902586
269297.111886
269306.532336
269311.837756
269315.289717
269317.572552
269317.318928
269313.540995
269307.149095
269297.654807
269286.642213
269636.445383
66.7281849529
66.7281849529
66.7281849529
66.7281849529
66.7281849529
66.7281849529
66.7281849529
66.7281849529
66.7281849529
66.7281849529
66.7281849529
66.7281849529
66.7281849529
66.7281849529
66.7281849529
66.7281849533
66.7281849748
66.7281862347
66.7282577319
66.7323330162
66.8377992165
107.117799088
1042.1201796
5181.85167489
23612.9788911
61863.5670822
124269.317664
191969.038605
237285.09522
255640.234556
260743.340524
262117.396501
262681.550667
263061.923377
263384.139604
263670.662279
263930.527276
264167.389014
264383.205686
264577.087463
264751.655211
264912.762002
265037.707372
265168.777652
265282.755367
265384.523525
265473.332886
265549.996576
265617.426243
265677.383748
265737.082454
265770.601866
265814.844546
265845.312217
265870.898953
265894.055228
265912.739382
265927.283695
265940.018183
265924.391012
265927.039114
265922.137646
265919.58117
265915.336297
265905.963867
265889.768966
265868.604791
265846.316938
265826.243835
266155.054395
66.7281849525
66.7281849525
66.7281849525
66.7281849525
66.7281849525
66.7281849526
66.7281849526
66.7281849526
66.7281849526
66.7281849526
66.7281849526
66.7281849526
66.7281849526
66.7281849526
66.7281849526
66.7281849535
66.7281850064
66.7281881053
66.7283632134
66.7384413081
66.9259569529
183.963207372
1637.16039319
7279.73274846
29629.4025445
73153.6644486
138466.352708
202509.620295
240780.543575
254725.908493
258402.054805
259406.323338
259849.192595
260162.345761
260428.050498
260664.290139
260881.483274
261057.79897
261235.196681
261391.011218
261527.428484
261648.632748
261755.234972
261847.504903
261928.224327
262005.958653
262053.911175
262112.482949
262156.089804
262193.505954
262227.465881
262256.122651
262275.254541
262294.114554
262288.078738
262300.199258
262300.659689
262296.889265
262287.851399
262275.265858
262260.449645
262253.513317
262224.037171
262214.066264
262190.583427
262160.502501
262127.745925
262097.180663
262071.594411
262380.953983
66.7281849523
66.7281849523
66.7281849523
66.7281849523
66.7281849523
66.7281849523
66.7281849523
66.7281849523
66.7281849523
66.7281849523
66.7281849523
66.7281849523
66.7281849523
66.7281849523
66.7281849523
66.7281849548
66.7281850966
66.7281933292
66.7286507514
66.7543621118
67.1232602657
359.995437001
2489.8653303
11540.2685867
36923.0438868
85690.091525
152684.148509
211570.267059
242840.147597
253095.552718
255673.780718
256393.875098
256733.147295
256985.322777
257183.765857
257375.441656
257540.584291
257688.397732
257817.057003
257931.057551
258029.119653
258118.280498
258176.070648
258242.482951
258293.825349
258336.026822
258371.455824
258398.941066
258423.24608
258422.153259
258436.904342
258441.375663
258442.786288
258439.271862
258434.351875
258431.094775
258397.65173
258380.677263
258354.975976
258329.399581
258303.759644
258281.032336
258256.566966
258224.060646
258192.031615
258138.553262
258106.106856
258065.795457
258028.311971
258308.637946
66.728184952
66.728184952
66.728184952
66.728184952
66.728184952
66.728184952
66.728184952
66.728184952
66.728184952
66.728184952
66.728184952
66.728184952
66.728184952
66.728184952
66.7281849522
66.7281849579
66.7281852873
66.7282040402
66.7292273831
66.784821549
67.4517275736
665.861194258
3345.23654857
15925.3870926
45695.2055139
99579.3524656
166576.348631
219026.19816
243598.975286
250869.235694
252629.47845
253131.553269
253362.471196
253550.787069
253704.189448
253837.699456
253950.506373
254052.852998
254121.763166
254198.172047
254257.278281
254304.1587
254339.562812
254366.299633
254388.766831
254386.840038
254400.109971
254401.833301
254399.90924
254392.225347
254382.788138
254350.005319
254332.946711
254306.392493
254278.853533
254249.484415
254223.326448
254175.11423
254142.56424
254100.144776
254058.148758
254020.682304
253984.821082
253946.351313
253899.547536
253842.485005
253792.722648
253733.957019
253702.750561
253961.00686
66.7281849518
66.7281849518
66.7281849518
66.7281849518
66.7281849518
66.7281849518
66.7281849518
66.7281849518
66.7281849518
66.7281849518
66.7281849518
66.7281849518
66.7281849518
66.7281849518
66.7281849521
66.7281849689
66.7281859403
66.7282408104
66.7313185893
66.8251298389
93.0092925163
939.945934656
4593.08829903
21154.9658177
56205.6206564
114568.377564
179715.748208
224677.161802
243170.302603
248147.497762
249287.320887
249613.014543
249773.359512
249887.576906
249984.814197
250044.875334
250110.349554
250156.589312
250190.566388
250216.221232
250235.094008
250228.708808
250234.178069
250226.127291
250210.441034
250197.662222
250160.364419
250139.918484
250110.583282
250073.0372
250032.375856
249997.117771
249940.265744
249902.546696
249856.344118
249807.895395
249759.147826
249713.072428
249642.893427
249593.341561
249539.051966
249487.358442
249437.519807
249384.269955
249324.565282
249258.192049
249196.785967
249154.026318
249090.03962
249340.48977
66.7281849516
66.7281849516
66.7281849516
66.7281849516
66.7281849516
66.7281849517
66.7281849517
66.7281849517
66.7281849517
66.7281849517
66.7281849517
66.7281849517
66.7281849517
66.7281849517
66.7281849525
66.7281850016
66.7281878159
66.7283435084
66.737063425
66.9061621039
160.875046279
1415.92373054
6612.72831823
27750.3443723
68627.6645099
130462.043122
191660.252615
228481.718276
241752.325315
244983.571123
245688.455954
245875.466967
245956.254516
245987.7967
246020.836353
246036.673858
246039.649501
246037.647232
246006.188198
245989.683915
245961.288287
245932.230567
245877.302935
245839.496921
245789.553338
245737.645728
245687.346767
245616.792605
245563.6905
245502.726639
245437.424508
245378.404915
245297.677394
245239.467793
245173.23925
245105.536623
245035.777274
244972.23865
244887.255096
244823.990089
244756.107073
244689.297391
244621.442321
244551.194915
244478.461465
244409.432354
244342.683812
244281.665981
244200.685799
244395.652148
66.7281849515
66.7281849515
66.7281849515
66.7281849515
66.7281849515
66.7281849515
66.7281849515
66.7281849515
66.7281849515
66.7281849515
66.7281849515
66.7281849515
66.7281849515
66.7281849516
66.7281849543
66.7281851132
66.7281941988
66.7286924302
66.7562136475
67.1469203327
368.000929709
2500.44818127
11322.450435
36159.5750944
83081.7565698
146654.728446
201838.49968
230468.641492
239439.480879
241420.167254
241802.514767
241853.181896
241863.359759
241850.407358
241822.979828
241766.132255
241719.200978
241661.969859
241602.014242
241519.53764
241451.986822
241377.227735
241302.233862
241208.024601
241128.448735
241042.607386
240954.385397
240872.21953
240772.057678
240693.432885
240606.035501
240514.725645
240428.345943
240326.135966
240246.186087
240160.328492
240073.331815
239991.965778
239888.549635
239807.264809
239723.206772
239641.24359
239558.936007
239475.059111
239389.92414
239313.000283
239216.229994
239142.846495
239063.842574
239220.815456
66.7281849513
66.7281849514
66.7281849514
66.7281849514
66.7281849514
66.7281849514
66.7281849514
66.7281849514
66.7281849514
66.7281849514
66.7281849514
66.7281849514
66.7281849514
66.7281849515
66.7281849594
66.728185399
66.7282098063
66.7295223999
66.7974650702
70.1494522956
740.547762763
3588.69467402
16767.1010458
46796.8821391
99421.7043584
162525.538079
209801.524161
230718.743186
236422.920706
237534.782889
237669.577618
237638.110142
237568.690322
237465.973964
237376.755955
237274.075499
237172.889908
237048.754313
236941.288704
236831.761867
236700.423515
236588.000966
236469.215881
236355.613055
236222.179567
236108.125152
235989.562771
235876.606591
235747.612296
235641.25711
235528.350048
235420.081339
235292.779206
235187.303341
235080.714517
234977.896907
234875.32746
234777.083592
234660.090199
234565.949248
234463.092581
234360.582427
234260.567982
234162.579625
234073.622678
233966.128523
233881.31453
233788.55324
233694.80812
233816.005357
66.7281849512
66.7281849512
66.7281849512
66.7281849512
66.7281849512
66.7281849512
66.7281849512
66.7281849512
66.7281849512
66.7281849512
66.7281849512
66.7281849512
66.7281849513
66.7281849518
66.7281849839
66.7281868011
66.7282864825
66.7337672971
66.8619226628
118.905582034
1104.91882999
5362.74760103
23559.6938047
59957.3445125
117295.044059
177122.936032
215260.386671
229503.940012
232833.303189
233360.551046
233331.9633
233203.43009
233037.900136
232888.598731
232713.837708
232556.508081
232397.820682
232221.201112
232063.772995
231901.469058
231742.989472
231569.845527
231415.595279
231264.227852
231096.108109
230951.550478
230801.87271
230659.9416
230503.349079
230368.942294
230230.694778
230101.5331
229951.501503
229825.45212
229695.592614
229570.135713
229454.506592
229320.018167
229207.327154
229088.79036
228972.207686
228857.356879
228751.302323
228625.196133
228523.351034
228417.181284
228312.192396
228207.498275
228103.146639
228193.751902
66.7281849511
66.7281849511
66.7281849511
66.7281849511
66.7281849511
66.7281849511
66.7281849511
66.7281849511
66.7281849511
66.7281849511
66.7281849511
66.7281849511
66.7281849512
66.7281849534
66.7281850777
66.7281920425
66.7285681491
66.7490761888
67.0677408891
282.725315829
2205.07947668
9106.28451949
32546.5219738
75834.7901729
135876.230847
189530.520353
218132.3655
227047.654705
228798.095943
228935.980058
228757.037271
228543.121418
228321.792047
228083.565703
227866.885463
227632.073606
227415.950272
227204.36276
226976.427847
226771.774431
226568.589625
226352.861586
226160.405257
225970.745923
225768.406917
225589.119789
225408.745412
225238.529611
225052.792779
224891.20909
224727.493666
224574.747846
224402.867579
224254.89189
224105.537786
223965.841218
223811.381961
223681.78481
223546.049385
223409.380715
223275.131001
223151.278679
223011.910567
222896.708559
222777.244222
222657.436169
222537.365802
222418.507118
222302.406508
222362.232419
66.728184951
66.728184951
66.728184951
66.728184951
66.728184951
66.728184951
66.728184951
66.728184951
66.728184951
66.728184951
66.728184951
66.728184951
66.7281849512
66.7281849594
66.728185412
66.7282101854
66.7295122664
66.7966596955
68.2597339877
711.663659899
3448.49055177
15784.0522239
44410.9947526
94243.5029085
154099.615101
198967.986131
218589.985297
223633.571681
224379.784772
224242.055017
223975.972445
223666.624624
223377.001556
223071.469203
222789.384441
222512.371755
222224.675424
221965.440804
221690.376195
221438.001776
221193.753422
220937.584053
220705.173107
220481.350996
220243.151448
220031.037394
219826.048509
219605.353446
219413.082195
219219.995747
219037.433626
218839.96337
218667.447742
218492.726511
218327.470161
218148.293646
217994.861005
217839.329251
217686.064876
217541.171494
217378.181431
217241.157231
217101.304429
216964.527167
216829.56929
216698.67343
216570.179392
216440.069916
216318.600642
216342.236898
66.7281849509
66.7281849509
66.7281849509
66.7281849509
66.7281849509
66.7281849509
66.7281849509
66.7281849509
66.7281849509
66.7281849509
66.7281849509
66.728184951
66.7281849517
66.7281849932
66.7281872976
66.72831136
66.7350053432
66.880788298
129.166019507
1160.70627828
5532.59096637
23830.5392965
59560.6807897
114569.293431
170473.881114
204901.825405
217052.164103
219533.378462
219661.691073
219359.681742
218980.978335
218596.620904
218234.526045
217856.707365
217517.622722
217187.035841
216846.152906
216536.016269
216214.76079
215918.339518
215632.460383
215336.054567
215067.303178
214783.949802
214537.11509
214293.225078
214056.942407
213809.902358
213589.008515
213374.683895
213148.690804
212950.326393
212749.080355
212558.408933
212351.995667
212174.799779
211996.438656
211829.88902
211644.565957
211484.957115
211322.623879
211164.165105
211009.622283
210865.314319
210701.710439
210563.6131
210420.950661
210280.390734
210142.819618
210140.088925
66.7281849509
66.7281849509
66.7281849509
66.7281849509
66.7281849509
66.7281849509
66.7281849509
66.7281849509
66.7281849509
66.7281849509
66.7281849509
66.7281849509
66.7281849546
66.7281851579
66.7281963753
66.7287919875
66.7603858196
67.1991889537
384.254039873
2519.6351033
10642.3870782
34731.6032067
78138.8137709
135429.536225
183614.954452
207378.861428
213998.156423
214943.758059
214689.201453
214262.262316
213794.281759
213354.640888
212905.716144
212491.373385
212070.578968
211683.176697
211291.208011
210931.136211
210562.290591
210228.096492
209882.113923
209566.543056
209262.12401
208948.385026
208665.940008
208390.651511
208106.373903
207850.131065
207603.928795
207344.786083
207116.267018
206895.790384
206658.211565
206446.896255
206235.417976
206040.028283
205831.767841
205650.423448
205464.896767
205282.166677
205103.744695
204937.3333
204754.152508
204597.252117
204439.075623
204285.258117
204133.584643
203981.322206
203828.421963
203785.680638
66.7281849508
66.7281849508
66.7281849508
66.7281849508
66.7281849508
66.7281849508
66.7281849508
66.7281849508
66.7281849508
66.7281849508
66.7281849508
66.7281849511
66.7281849706
66.7281860586
66.7282453686
66.731427758
66.8320859932
89.1264933633
895.042054827
4219.0314044
18724.4744446
49425.7862957
99600.6581844
154971.366566
192471.136105
206869.500044
209907.474213
209963.668172
209507.119124
208962.640298
208420.607273
207912.879518
207401.544725
206927.939814
206451.2171
205989.933917
205567.514954
205162.094321
204748.675822
204373.47814
203989.082433
203640.879614
203282.755967
202955.792871
202640.672336
202317.678467
202025.350259
201743.903794
201451.249838
201190.047911
200938.601559
200675.855104
200439.778339
200201.577349
199976.277663
199740.309497
199537.939315
199334.891337
199139.968036
198925.037344
198738.261696
198552.32282
198373.106764
198198.432418
198026.424703
197863.705895
197682.447461
197526.480114
197366.775141
197298.886867
66.7281849507
66.7281849507
66.7281849507
66.7281849507
66.7281849507
66.7281849507
66.7281849507
66.7281849507
66.7281849507
66.7281849507
66.7281849508
66.728184953
66.7281850737
66.7281917157
66.7285436771
66.7471366094
67.0457758838
242.834177873
1975.08916482
7600.24702755
29399.93083
68361.0839715
122512.719074
171099.791296
196722.976795
204166.39033
205138.076408
204726.626809
204122.481309
203490.142661
202877.1315
202300.832333
201732.42089
201186.028404
200678.154586
200166.345977
199697.678344
199222.570039
198790.774316
198352.375479
197955.257673
197549.970552
197178.082738
196820.678927
196456.656757
196127.628007
195809.24368
195482.746007
195187.092736
194903.129278
194608.900162
194346.688601
194090.746574
193818.89707
193577.492169
193339.79984
193119.874234
192884.186373
192676.578199
192464.998146
192257.655595
192064.21564
191855.700469
191675.909171
191492.717907
191312.886232
191136.432006
190963.595531
190795.045293
190697.656562
66.7281849507
66.7281849507
66.7281849507
66.7281849507
66.7281849507
66.7281849507
66.7281849507
66.7281849507
66.7281849507
66.7281849507
66.7281849509
66.728184964
66.7281856771
66.7282247116
66.7303157745
66.8164711947
76.5749288474
789.316578203
3703.82953013
16223.3982424
44303.6359965
90982.0596962
144425.472372
182051.675298
196975.996633
200023.419455
199918.095902
199258.482122
198549.944259
197845.0597
197166.462632
196531.545984
195908.081014
195308.404294
194749.055628
194193.104678
193678.408103
193166.113492
192672.812389
192220.982285
191788.613965
191351.872796
190953.875864
190546.583544
190180.035826
189802.402233
189459.088248
189128.819125
188790.499549
188485.168912
188192.105985
187886.675424
187612.964286
187341.385374
187084.054313
186815.779718
186578.693051
186344.682169
186121.684644
185880.830684
185668.252899
185456.7751
185252.269115
185052.673488
184864.431712
184657.207171
184476.604127
184293.33145
184114.573417
183987.019433
66.7281849506
66.7281849506
66.7281849506
66.7281849506
66.7281849506
66.7281849506
66.7281849506
66.7281849506
66.7281849506
66.7281849506
66.7281849527
66.7281850618
66.7281909391
66.7284977977
66.7445280802
67.0137423743
216.625519506
1774.16063177
6950.61851578
27465.6532482
64200.9825431
115682.909817
162414.297392
187268.198354
194348.258193
195032.165222
194412.343991
193607.45494
192818.471363
192045.161067
191308.124387
190601.533564
189939.904021
189294.186556
188671.777244
188094.489617
187518.407346
186989.872431
186461.086878
185976.968556
185492.177355
185048.656663
184599.36696
184191.054021
183773.447849
183392.269168
183024.864065
182652.806974
182315.472781
181963.643858
181657.827865
181355.533945
181064.142201
180760.511547
180489.593869
180229.057835
179954.999396
179711.178557
179468.638825
179232.009286
179008.917858
178767.939038
178558.954507
178349.043595
178144.304932
177943.669233
177746.535517
177553.246282
177364.511346
177206.222643
66.7281849505
66.7281849505
66.7281849505
66.7281849505
66.7281849505
66.7281849505
66.7281849505
66.7281849505
66.7281849506
66.7281849508
66.7281849663
66.7281858057
66.7282311497
66.7306239836
66.8231148428
78.65735477
802.011270132
3725.42057379
15981.1317981
43466.5591101
88455.0348056
139122.295953
174133.634561
187558.603293
189956.119599
189545.045018
188680.901873
187783.354516
186915.221177
186083.601311
185309.856819
184555.526589
183833.006059
183156.856113
182496.875775
181861.801742
181272.662342
180687.154288
180149.835827
179612.051256
179119.985626
178626.022259
178174.997416
177718.614887
177304.174388
176879.918377
176492.311987
176120.029637
175742.498716
175400.830829
175071.863708
174731.609924
174425.197332
174130.014397
173823.311148
173548.421232
173277.329276
173020.232662
172747.324022
172505.88914
172264.512289
172030.735905
171803.343483
171588.778809
171355.756736
171151.984941
170945.469185
170743.676279
170546.394982
170360.543965
66.7281849505
66.7281849505
66.7281849505
66.7281849505
66.7281849505
66.7281849505
66.7281849505
66.7281849505
66.7281849506
66.7281849536
66.728185116
66.7281937346
66.7286360369
66.7511119613
67.0993424574
266.88812672
2049.49565281
7497.95551115
28638.8872239
65238.9856581
114720.733104
157573.090594
179055.970259
184532.777133
184658.832591
183777.762439
182785.222425
181818.578175
180896.220921
180016.219541
179176.117255
178370.072201
177627.930159
176901.04069
176203.897785
175553.605524
174910.374231
174316.592706
173727.323835
173185.228723
172643.959479
172149.320254
171651.819825
171198.501856
170738.743513
170321.355809
169895.607746
169505.633823
169133.323216
168752.935474
168408.232525
168074.566985
167732.076479
167424.044059
167127.514939
166817.756568
166538.882056
166262.588037
165996.688083
165744.430071
165477.515152
165240.45894
165001.794715
164770.874453
164546.138316
164333.842955
164101.804803
163899.141484
163694.272948
163483.169031
66.7281849504
66.7281849504
66.7281849504
66.7281849504
66.7281849505
66.7281849505
66.7281849505
66.7281849505
66.7281849511
66.7281849851
66.7281867848
66.7282796102
66.7329924218
66.8596256618
99.1848382369
945.694541731
4325.43799632
18182.4433768
46902.9105515
91592.3572674
138587.903635
168356.737821
178444.348086
179678.865144
178878.362553
177787.419405
176726.36204
175706.336561
174729.930281
173822.054331
172945.408736
172110.248482
171311.186614
170543.497142
169836.678926
169139.634203
168491.368431
167854.912827
167244.481865
166680.039412
166116.294557
165601.365838
165084.044599
164606.187337
164123.10725
163689.660857
163273.324508
162847.649682
162460.929811
162087.120001
161705.661483
161358.611076
161027.980515
160688.267034
160381.119129
160074.128432
159781.74755
159477.636896
159209.099157
158944.082844
158691.988271
158422.346774
158182.809359
157943.336824
157710.550458
157482.529944
157259.887119