/*--------------------------------*- C++ -*----------------------------------*\
| =========                 |                                                 |
| \\      /  F ield         | foam-extend: Open Source CFD                    |
|  \\    /   O peration     | Version:     4.1                                |
|   \\  /    A nd           | Web:         http://www.foam-extend.org         |
|    \\/     M anipulation  |                                                 |
\*---------------------------------------------------------------------------*/
FoamFile
{
    version     2.0;
    format      ascii;
    class       volScalarField;
    location    "0.0006";
    object      rho;
}
// * * * * * * * * * * * * * * * * * * * * * * * * * * * * * * * * * * * * * //

dimensions      [1 -3 0 0 0 0 0];

internalField   nonuniform List<scalar> 
8400
(
0.00101999409817
0.00101999409817
0.00101999409817
0.00101999409817
0.00101999409817
0.00101999409817
0.00101999409817
0.00101999409817
0.00101999409817
0.00101999409817
0.00101999409817
0.00101999409817
0.00101999409818
0.00101999409818
0.00101999409818
0.00101999409818
0.00101999409818
0.00101999409818
0.00101999409819
0.00101999409869
0.00101999412801
0.00101999577584
0.00102009010713
0.00102203936248
0.00104533005345
0.00120041511227
0.00175171872239
0.00308947051357
0.00556477681442
0.00905386733294
0.0124463621047
0.0145503800744
0.0153697560616
0.015583988186
0.0156173736183
0.0156077498673
0.0155895432389
0.0155705004207
0.015552162744
0.015534725528
0.0155181105104
0.0155024181909
0.0154875473746
0.0154728698471
0.0154581442646
0.0154434484849
0.0154287037197
0.0154138597296
0.0153988837107
0.0153836812014
0.0153680967915
0.0153520479556
0.0153356335698
0.0153190355222
0.0153026534528
0.0152866063462
0.0152704303085
0.0152541393267
0.0152380762238
0.015222413017
0.0152074070148
0.0151933569127
0.0151805200244
0.0151690654156
0.0151591236649
0.0151508904843
0.0151446008282
0.0151404275575
0.0151385814846
0.0151798449315
0.00101999409798
0.00101999409798
0.00101999409798
0.00101999409798
0.00101999409798
0.00101999409798
0.00101999409798
0.00101999409798
0.00101999409798
0.00101999409798
0.00101999409798
0.00101999409798
0.00101999409798
0.00101999409798
0.00101999409798
0.00101999409798
0.00101999409798
0.00101999409798
0.00101999409803
0.00101999410063
0.00101999425235
0.00102000268897
0.00102047845898
0.0010267613169
0.00108292424837
0.00135913100413
0.00217394153097
0.0039258340492
0.00688304283159
0.0105285370792
0.013520210376
0.0150617786815
0.0155832862372
0.0157259992252
0.0157705682825
0.0157926787654
0.0158091399321
0.0158234504444
0.0158363114808
0.0158478590658
0.0158581227242
0.0158671087059
0.0158747837167
0.0158810955566
0.0158860010059
0.0158894720998
0.0158915031117
0.0158921080881
0.0158913119695
0.0158891115617
0.0158854757369
0.0158804264423
0.0158740937764
0.0158666652368
0.0158583398313
0.0158492971709
0.015839643626
0.015829458782
0.0158188902452
0.0158081723126
0.0157975817552
0.0157873918763
0.0157778476615
0.0157691482064
0.0157614779206
0.0157550548783
0.0157500994764
0.0157467686453
0.0157452313555
0.0157775376168
0.00101999409789
0.00101999409789
0.00101999409789
0.00101999409789
0.00101999409789
0.00101999409789
0.00101999409789
0.00101999409789
0.00101999409789
0.00101999409789
0.00101999409789
0.00101999409789
0.00101999409789
0.00101999409789
0.00101999409789
0.00101999409789
0.00101999409789
0.0010199940979
0.00101999409813
0.00101999411197
0.00101999490381
0.00102004033412
0.00102134151266
0.00103727962215
0.00115392466298
0.00160907506141
0.00277685738707
0.00503791241618
0.00842104161927
0.0119690585725
0.0143613555973
0.0153718341545
0.0156733952858
0.0157605063064
0.0157971450931
0.0158220875481
0.015843176188
0.0158619383149
0.0158786807585
0.0158932343636
0.0159055997993
0.0159163176432
0.0159255089647
0.0159329697325
0.0159386725577
0.0159426042559
0.0159448007954
0.0159453556737
0.0159443560629
0.0159418093573
0.0159376876873
0.015932052228
0.0159250879691
0.0159170461153
0.0159084233058
0.0158993716515
0.0158894264058
0.0158787041019
0.0158677164305
0.0158567129791
0.0158459047403
0.0158355067465
0.0158257305468
0.015816799109
0.0158089593177
0.0158024457478
0.0157974310764
0.0157939905996
0.0157921995767
0.015818321859
0.00101999409784
0.00101999409784
0.00101999409784
0.00101999409784
0.00101999409784
0.00101999409784
0.00101999409784
0.00101999409784
0.00101999409784
0.00101999409784
0.00101999409784
0.00101999409784
0.00101999409784
0.00101999409784
0.00101999409784
0.00101999409784
0.00101999409784
0.00101999409786
0.001019994099
0.00101999416574
0.0010199979185
0.0010202131787
0.00102377094374
0.00106006340895
0.00126890103307
0.0019380250889
0.00346199759564
0.00618137883772
0.00979277440719
0.0130358498451
0.0148640141577
0.0155204094298
0.0157033243736
0.0157619056865
0.0157922519043
0.0158151623037
0.0158348415407
0.0158521696295
0.0158673677875
0.0158804977923
0.0158915942844
0.0159004668182
0.0159071292855
0.0159121166387
0.0159155250109
0.0159171417968
0.015917006943
0.0159152656849
0.0159120686198
0.0159073820655
0.015901431589
0.0158943750635
0.0158858254781
0.0158759853764
0.0158654096566
0.0158542151703
0.0158424921632
0.015830511518
0.0158185500323
0.0158067340756
0.0157951492263
0.015784003649
0.0157735942723
0.015764189315
0.0157559864608
0.0157491272155
0.0157437443439
0.01573996122
0.0157378970966
0.015760477322
0.00101999409781
0.00101999409781
0.00101999409781
0.00101999409781
0.00101999409781
0.00101999409781
0.00101999409781
0.00101999409781
0.00101999409781
0.00101999409781
0.00101999409781
0.00101999409781
0.00101999409781
0.00101999409781
0.00101999409781
0.00101999409781
0.00101999409781
0.00101999409787
0.00101999410145
0.00101999430962
0.00102000589344
0.00102065530463
0.00102868515254
0.00109642375314
0.00141003286337
0.00230439691242
0.00418078611727
0.00726501918098
0.0109256813134
0.0137781093631
0.0151556035462
0.0155932435271
0.0157116638517
0.0157532814687
0.0157777394249
0.0157971032686
0.0158136787301
0.015827950436
0.015840073295
0.0158501313
0.015858201995
0.015864343525
0.0158685965926
0.0158710061628
0.0158716077617
0.0158704621753
0.0158676636832
0.0158633037944
0.0158574709526
0.0158502410594
0.0158417248478
0.0158321089931
0.0158215480546
0.0158100932469
0.0157977944352
0.0157848448645
0.0157715947857
0.0157583753
0.0157453165908
0.0157324016857
0.0157197549194
0.0157080821304
0.0156978208155
0.0156885208314
0.0156800888019
0.0156727708368
0.0156667395422
0.0156623404028
0.0156598969583
0.0156803601826
0.00101999409779
0.00101999409779
0.00101999409779
0.00101999409779
0.00101999409779
0.00101999409779
0.00101999409779
0.00101999409779
0.00101999409779
0.00101999409779
0.00101999409779
0.00101999409779
0.00101999409779
0.00101999409779
0.00101999409779
0.00101999409779
0.00101999409779
0.00101999409797
0.00101999410885
0.00101999473742
0.00102003085001
0.00102121119845
0.00103558933305
0.00114321977801
0.00157454449578
0.00269971271673
0.00490674143379
0.00826010464758
0.0118409656771
0.0142934538665
0.0153306995816
0.0156310400046
0.0157114322369
0.0157416926359
0.0157605593505
0.0157755429557
0.0157880931643
0.0157985190311
0.0158069182716
0.0158133457882
0.0158178734012
0.0158205964137
0.0158215843562
0.0158208482359
0.0158183862643
0.0158142766554
0.015808678232
0.0158017132555
0.0157933829894
0.0157836635464
0.0157726699226
0.0157606859601
0.0157480127599
0.0157347394894
0.0157207993047
0.0157065578055
0.0156923643565
0.0156780370261
0.0156637379374
0.0156497705933
0.0156362580724
0.015623526828
0.0156119414655
0.0156016830573
0.0155927429697
0.0155850637398
0.0155786967104
0.0155738340284
0.0155707354039
0.0155890755598
0.00101999409777
0.00101999409777
0.00101999409777
0.00101999409777
0.00101999409777
0.00101999409777
0.00101999409777
0.00101999409777
0.00101999409777
0.00101999409777
0.00101999409777
0.00101999409777
0.00101999409777
0.00101999409777
0.00101999409777
0.00101999409777
0.00101999409778
0.00101999409829
0.00101999412827
0.0010199958254
0.00102009347524
0.0010221078819
0.0010460916446
0.00120486221745
0.00176586730773
0.00312447360113
0.0056366615402
0.0091718763071
0.0125843092611
0.014658572326
0.0154401826111
0.0156504136282
0.0157056953522
0.0157269258914
0.0157402609168
0.0157505406896
0.0157586513569
0.0157648088443
0.0157691136363
0.0157716151461
0.0157723560951
0.0157714071684
0.0157688378601
0.0157646862837
0.0157589898948
0.0157518187919
0.0157432797743
0.0157334631052
0.0157223897796
0.0157103200949
0.0156973986762
0.015683368548
0.0156684751711
0.0156531550379
0.0156374206438
0.0156212956864
0.0156050626255
0.0155890745768
0.0155734848766
0.0155583182046
0.0155436620902
0.0155297618214
0.0155170402934
0.0155062001048
0.0154973356404
0.0154896365808
0.0154829213411
0.0154776374516
0.0154741790236
0.015491386741
0.00101999409776
0.00101999409776
0.00101999409776
0.00101999409776
0.00101999409776
0.00101999409776
0.00101999409776
0.00101999409776
0.00101999409776
0.00101999409776
0.00101999409776
0.00101999409776
0.00101999409776
0.00101999409776
0.00101999409776
0.00101999409776
0.00101999409778
0.00101999409917
0.00101999418039
0.00101999875942
0.00102026184187
0.00102438616025
0.00106518978361
0.00129052520715
0.00199674197116
0.00358231986694
0.00637439402855
0.0100132291142
0.0131937468183
0.0149192901147
0.0155056560854
0.0156541249096
0.0156922357397
0.0157060015489
0.0157138724073
0.0157193898821
0.015722997574
0.0157248442153
0.0157250153541
0.0157235205312
0.0157203480898
0.0157155829535
0.0157093608342
0.0157019825413
0.0156934751185
0.0156833933918
0.0156717999266
0.0156590345899
0.0156451239178
0.015630091466
0.0156140988514
0.0155973804644
0.0155801630075
0.0155626154322
0.0155448653772
0.0155270392757
0.0155095025927
0.0154924184172
0.0154755142695
0.0154590244611
0.0154433658592
0.0154286487826
0.0154150651605
0.0154029053292
0.01539238906
0.0153835743438
0.015376409184
0.0153708462738
0.0153669656931
0.0153828411193
0.00101999409775
0.00101999409775
0.00101999409775
0.00101999409775
0.00101999409775
0.00101999409775
0.00101999409775
0.00101999409775
0.00101999409775
0.00101999409775
0.00101999409775
0.00101999409775
0.00101999409775
0.00101999409775
0.00101999409775
0.00101999409775
0.00101999409781
0.00101999410097
0.00101999428508
0.0010200045188
0.00102057788202
0.00102787682638
0.00109086145221
0.00138971889181
0.00225356864433
0.00408520815566
0.00713072743254
0.010799406693
0.0137014846516
0.0151106393396
0.0155450645318
0.015648050122
0.0156726462243
0.0156800668825
0.0156828321303
0.0156833739875
0.0156821685373
0.0156793339256
0.0156749581942
0.0156691014479
0.015661772693
0.0156530285797
0.0156429723125
0.0156316671419
0.0156191165932
0.0156053248672
0.0155903825115
0.0155744252945
0.0155575425666
0.0155397932837
0.0155212473877
0.0155022986688
0.0154831839427
0.0154636187118
0.0154437989967
0.0154241395909
0.0154046811786
0.0153854462821
0.0153666406531
0.0153486904037
0.0153318274084
0.015315977116
0.0153016469233
0.0152892089189
0.0152781448422
0.0152683800409
0.0152603248487
0.0152540637948
0.0152496047751
0.0152643164178
0.00101999409774
0.00101999409774
0.00101999409774
0.00101999409774
0.00101999409774
0.00101999409774
0.00101999409774
0.00101999409774
0.00101999409774
0.00101999409774
0.00101999409774
0.00101999409774
0.00101999409774
0.00101999409774
0.00101999409774
0.00101999409775
0.00101999409786
0.00101999410439
0.00101999448938
0.00102001656699
0.00102100491263
0.00103281133619
0.00112461217501
0.00151112807602
0.00255083907714
0.00463972173239
0.00790815638774
0.0115345533628
0.0141246129772
0.0152511427302
0.0155669800439
0.015635279511
0.0156478897845
0.0156483629164
0.0156452975231
0.0156403532715
0.0156338890096
0.0156260317377
0.0156168620445
0.0156064053814
0.0155946456085
0.0155816092574
0.0155674026422
0.0155520793013
0.0155356504645
0.0155184302575
0.0155005076913
0.0154814755166
0.0154614447182
0.0154407843418
0.0154195677613
0.0153978386214
0.0153757087878
0.0153534443565
0.015331345932
0.0153098479088
0.015289037034
0.015268450067
0.0152481777851
0.0152286750812
0.0152102253181
0.0151931153197
0.0151775469647
0.0151636084593
0.0151513179858
0.0151407082249
0.0151318688402
0.0151249291939
0.0151200189558
0.015133771668
0.00101999409774
0.00101999409774
0.00101999409774
0.00101999409774
0.00101999409774
0.00101999409774
0.00101999409774
0.00101999409774
0.00101999409774
0.00101999409774
0.00101999409774
0.00101999409774
0.00101999409774
0.00101999409774
0.00101999409774
0.00101999409774
0.00101999409806
0.00101999411641
0.00101999515757
0.00102005448539
0.00102157225573
0.00103998826141
0.00117035269035
0.00166195319703
0.0028988407751
0.00525557631151
0.008708905757
0.0122198064891
0.0144746564696
0.0153519355119
0.0155745024283
0.0156155022952
0.0156172996178
0.0156105761795
0.0156011929882
0.015590297494
0.015578200011
0.0155649801876
0.0155506383847
0.0155351809981
0.0155186235583
0.0155012580612
0.015483187712
0.0154639742071
0.0154436208803
0.0154224309772
0.0154004271265
0.0153776146492
0.0153541657077
0.0153303231994
0.0153064493732
0.0152825567296
0.0152581819392
0.0152335097628
0.0152090824985
0.015185130733
0.0151617300515
0.0151388932642
0.0151170640873
0.0150965224212
0.0150769846893
0.0150587102398
0.015042103463
0.0150271356921
0.0150137682192
0.0150020863983
0.014992306159
0.0149846365484
0.0149792016503
0.0149919905972
0.00101999409773
0.00101999409773
0.00101999409773
0.00101999409773
0.00101999409773
0.00101999409773
0.00101999409773
0.00101999409773
0.00101999409773
0.00101999409773
0.00101999409773
0.00101999409773
0.00101999409773
0.00101999409773
0.00101999409773
0.00101999409775
0.00101999409852
0.00101999414386
0.00101999670888
0.00102014451886
0.00102287229207
0.00105285188405
0.0012370908854
0.00185364022176
0.00330869982376
0.00594026352076
0.00952955331983
0.0128505665427
0.0147572468209
0.0154190600819
0.0155686838074
0.0155875967692
0.0155792990874
0.0155651500814
0.0155491375579
0.0155319638346
0.0155140704698
0.0154956125793
0.015476113597
0.0154554902246
0.0154339993039
0.0154116831364
0.0153885713539
0.0153647202065
0.0153401851284
0.015315257584
0.0152899970066
0.0152639457174
0.0152371821355
0.0152101417454
0.0151830127924
0.0151557953773
0.0151284002465
0.0151013815958
0.0150752116842
0.0150494149594
0.0150238691277
0.0149989815946
0.0149750804618
0.014952439799
0.0149312548215
0.0149120065943
0.0148947581402
0.0148788234087
0.0148642248889
0.0148514943196
0.0148409175176
0.0148326671093
0.0148267617716
0.014838480856
0.00101999409773
0.00101999409773
0.00101999409773
0.00101999409773
0.00101999409773
0.00101999409773
0.00101999409773
0.00101999409773
0.00101999409773
0.00101999409773
0.00101999409773
0.00101999409773
0.00101999409773
0.00101999409773
0.00101999409773
0.00101999409777
0.00101999409983
0.00101999421968
0.00102000087456
0.00102037465867
0.00102570470888
0.00107524028685
0.00133108227575
0.00210341799367
0.00379487014594
0.0067006557254
0.0103621600958
0.0134190552927
0.0149764245
0.0154555532355
0.0155479960056
0.0155489240274
0.0155314552556
0.0155102157213
0.0154878995482
0.0154646074574
0.015440422876
0.0154156122567
0.0153902095497
0.01536420601
0.0153376199196
0.0153106898963
0.0152834222895
0.0152553669195
0.0152265890037
0.0151974205319
0.0151678608032
0.0151378997126
0.0151079165184
0.0150781062915
0.015048097285
0.0150179134771
0.0149878980491
0.0149582937377
0.0149291832
0.0149009317228
0.0148737823334
0.0148472615591
0.0148215522818
0.0147973169029
0.0147747691103
0.0147539628397
0.0147348115209
0.0147171724051
0.0147016794826
0.0146888610737
0.0146780371804
0.0146690382384
0.014662309642
0.0146725453068
0.00101999409773
0.00101999409773
0.00101999409773
0.00101999409773
0.00101999409773
0.00101999409773
0.00101999409773
0.00101999409773
0.00101999409773
0.00101999409773
0.00101999409773
0.00101999409773
0.00101999409773
0.00101999409773
0.00101999409773
0.00101999409781
0.00101999410258
0.00101999437423
0.00102000918824
0.00102081285395
0.00103042596861
0.00110792207978
0.00145156308393
0.00240662619294
0.00437366957504
0.00754161692677
0.0111949581436
0.0139199206785
0.0151406421371
0.0154686936531
0.01551607579
0.0155016287971
0.0154754472698
0.0154466043628
0.0154167863835
0.0153864920086
0.0153558173062
0.0153250509306
0.0152942333171
0.0152628726197
0.0152309240271
0.0151986574481
0.0151660749747
0.0151331596136
0.0151002460752
0.0150674450685
0.0150342910921
0.015000788456
0.0149672126163
0.0149335940937
0.0149003507867
0.014867737514
0.0148352600884
0.0148029131704
0.0147712078582
0.0147404328167
0.0147109812589
0.0146828815488
0.0146557079184
0.0146297342448
0.0146055513048
0.0145833525446
0.014563123309
0.0145446437485
0.014527779899
0.0145129495392
0.0145010477033
0.0144921827194
0.0144856057934
0.0144949832177
0.00101999409772
0.00101999409772
0.00101999409772
0.00101999409772
0.00101999409772
0.00101999409772
0.00101999409772
0.00101999409772
0.00101999409772
0.00101999409772
0.00101999409772
0.00101999409772
0.00101999409772
0.00101999409772
0.00101999409773
0.00101999409797
0.00101999411216
0.00101999491277
0.00102003983965
0.00102139018564
0.00103758323189
0.00115500330335
0.00161225786466
0.00278566436518
0.00505741973396
0.00845658620553
0.0120051788298
0.0143430821432
0.0152541666517
0.0154619086208
0.0154739811375
0.0154456209538
0.0154098204246
0.0153727114958
0.0153355932732
0.0152986824361
0.0152615275205
0.015224113118
0.0151866768503
0.0151492000976
0.0151119577898
0.0150749577238
0.0150376498969
0.0150000215615
0.0149623975088
0.0149251295906
0.0148882821432
0.0148512707448
0.0148140290028
0.0147769562402
0.0147402509999
0.0147043560938
0.0146693981714
0.0146348868212
0.0146009168699
0.0145679035667
0.0145359999928
0.0145056584478
0.0144770275841
0.0144497446025
0.0144240982384
0.0144005262665
0.0143789616269
0.0143592205158
0.0143412793781
0.0143255989924
0.0143128178452
0.0143033209374
0.0142960361255
0.0143025568472
0.00101999409772
0.00101999409772
0.00101999409772
0.00101999409772
0.00101999409772
0.00101999409772
0.00101999409772
0.00101999409772
0.00101999409772
0.00101999409772
0.00101999409772
0.00101999409772
0.00101999409772
0.00101999409772
0.00101999409773
0.00101999409845
0.0010199941395
0.00101999641098
0.00102012371996
0.001022573506
0.0010504917316
0.00122726219964
0.0018289442047
0.00325992716456
0.00585811018187
0.00943125418918
0.01276610439
0.0146816225182
0.0153213566142
0.0154358595057
0.0154200920007
0.0153790716788
0.0153341454629
0.0152891372333
0.0152442559843
0.0151995189658
0.0151550724733
0.0151111892665
0.0150679428536
0.0150247933349
0.0149816710257
0.0149390888348
0.0148970196914
0.0148548914949
0.0148126985975
0.0147707775429
0.0147294823308
0.0146888300674
0.0146482825642
0.0146078862715
0.0145680258172
0.0145291455646
0.014491398721
0.0144542858837
0.014417886366
0.0143826252244
0.0143486230332
0.0143163341865
0.0142859992893
0.0142572265046
0.0142301249671
0.0142050148977
0.014181896298
0.014160862165
0.0141422116258
0.0141260342374
0.0141122004303
0.0141012443634
0.0140932481438
0.014099649687
0.00101999409772
0.00101999409772
0.00101999409772
0.00101999409772
0.00101999409772
0.00101999409772
0.00101999409772
0.00101999409772
0.00101999409772
0.00101999409772
0.00101999409772
0.00101999409772
0.00101999409772
0.00101999409772
0.00101999409776
0.00101999410008
0.00101999423262
0.00102000149513
0.00102040226736
0.00102605516972
0.00107776505242
0.00134169513905
0.00213114013968
0.00384892020148
0.00677973970205
0.0104382561969
0.0134458130506
0.0149289193462
0.0153439129803
0.0153892847633
0.0153517163895
0.0152995151338
0.0152458114887
0.0151923552011
0.0151395938741
0.0150878350526
0.0150366395825
0.0149859453293
0.0149362056006
0.0148873759798
0.0148388862354
0.0147906918521
0.014743276929
0.0146966161236
0.0146501785238
0.0146039461771
0.0145582611905
0.0145135265236
0.0144697781884
0.0144264263501
0.0143834193807
0.0143411574619
0.0143001815319
0.0142607288894
0.0142223850756
0.0141851112234
0.014149113204
0.0141148643987
0.0140827070816
0.0140522667603
0.0140236462313
0.0139971808546
0.0139728469935
0.0139507002417
0.0139309259227
0.0139140017526
0.0138999625925
0.0138881568479
0.0138785735585
0.0138827522534
0.00101999409772
0.00101999409772
0.00101999409772
0.00101999409772
0.00101999409772
0.00101999409772
0.00101999409772
0.00101999409772
0.00101999409772
0.00101999409772
0.00101999409772
0.00101999409772
0.00101999409772
0.00101999409772
0.00101999409783
0.0010199941042
0.00101999445865
0.0010200137173
0.00102099371802
0.00103250258143
0.00112148432382
0.00149925923873
0.00252115764401
0.0045830105857
0.00782604582473
0.0114456021698
0.0140223067529
0.0150932777793
0.015331471558
0.01532563587
0.0152705779675
0.0152076102261
0.0151445537694
0.0150828202916
0.0150221276877
0.0149624454862
0.0149041385693
0.0148471878834
0.014791079712
0.0147359726507
0.0146820543866
0.0146287593695
0.01457602977
0.0145243582235
0.0144737221484
0.014423552262
0.0143738732443
0.0143253585264
0.0142780887701
0.0142314708656
0.0141854725759
0.0141406889504
0.0140973124791
0.0140550768658
0.014014158539
0.0139747477274
0.0139367633332
0.013900807089
0.0138672042625
0.0138353342728
0.0138051441386
0.0137770857188
0.013751394006
0.0137282211242
0.0137079370674
0.0136905408075
0.0136753435999
0.0136623083127
0.0136518226409
0.0136542658616
0.00101999409771
0.00101999409771
0.00101999409771
0.00101999409771
0.00101999409771
0.00101999409771
0.00101999409771
0.00101999409771
0.00101999409771
0.00101999409771
0.00101999409771
0.00101999409771
0.00101999409771
0.00101999409772
0.00101999409819
0.00101999412471
0.00101999557835
0.00102007551258
0.00102192388257
0.00104367543897
0.00119081972713
0.00172361470178
0.00303318109606
0.00547886401613
0.00897463146754
0.0124024451169
0.014475349235
0.0151831615949
0.0152904795463
0.0152469006113
0.0151759303169
0.0151021965184
0.0150299057612
0.014959497628
0.0148909508154
0.0148239065156
0.0147584919771
0.0146948678544
0.0146324319604
0.0145710747011
0.0145112198571
0.0144527743835
0.0143952033443
0.014338776547
0.0142837251783
0.0142294612321
0.0141759857888
0.0141238849876
0.0140731948679
0.0140233858052
0.0139744397271
0.0139269768809
0.0138811467786
0.0138365005927
0.0137932137725
0.0137516901831
0.0137122301379
0.0136749284914
0.0136393405861
0.0136055631129
0.0135740086181
0.0135448050234
0.0135183574056
0.0134947638735
0.0134734767363
0.0134545004895
0.0134380980162
0.0134242600412
0.0134130421459
0.0134138728459
0.00101999409771
0.00101999409771
0.00101999409771
0.00101999409771
0.00101999409771
0.00101999409771
0.00101999409771
0.00101999409771
0.00101999409771
0.00101999409771
0.00101999409771
0.00101999409771
0.00101999409771
0.00101999409775
0.00101999409956
0.00101999420119
0.00101999969389
0.00102029939546
0.00102492237686
0.00106904075807
0.00130971779761
0.00204976239784
0.00369694039863
0.00654493403784
0.0101816813652
0.0132514335793
0.0147921594677
0.0152057550153
0.0152215668527
0.0151508263315
0.0150668591937
0.0149828257411
0.0149010322843
0.0148219392224
0.0147452910699
0.0146709131077
0.0145984253049
0.0145278985033
0.014459397321
0.0143923440017
0.0143269222471
0.0142632808475
0.0142008118423
0.0141397574064
0.0140803677095
0.0140220458891
0.01396474365
0.0139090537467
0.0138550471579
0.0138021653325
0.0137503817474
0.0137003217628
0.0136521074064
0.0136052151882
0.0135597818416
0.0135166079896
0.013475782378
0.0134366546791
0.0133991918366
0.0133638953794
0.01333104217
0.013300998669
0.0132737751276
0.0132488651974
0.0132263367045
0.0132064541728
0.0131891367901
0.0131744123239
0.013162401739
0.0131616023098
0.00101999409771
0.00101999409771
0.00101999409771
0.00101999409771
0.00101999409771
0.00101999409771
0.00101999409771
0.00101999409771
0.00101999409771
0.00101999409771
0.00101999409771
0.00101999409771
0.00101999409771
0.00101999409783
0.0010199941044
0.00101999446337
0.00102001330823
0.00102098349964
0.00103232874349
0.00111982554143
0.00149322635279
0.00250578504689
0.00455342228178
0.0077789669112
0.0113849868872
0.013943341017
0.0149777935679
0.0151723016267
0.0151267353691
0.0150360361223
0.0149404331337
0.0148468746204
0.0147563521933
0.0146688960648
0.0145841191278
0.0145020560977
0.0144227591978
0.0143458929443
0.0142713307478
0.0141986008516
0.0141278011118
0.0140591491388
0.0139920098199
0.0139265464036
0.0138630308586
0.0138008367104
0.0137401900969
0.0136814315955
0.0136239885601
0.0135678476122
0.0135136316185
0.0134613925119
0.0134105753935
0.0133612447006
0.0133141462014
0.0132694396361
0.013226582339
0.0131855580633
0.0131467189402
0.0131105249314
0.0130771312019
0.0130460071325
0.0130171705876
0.0129909520628
0.0129674676714
0.0129467792981
0.0129287264726
0.0129131041282
0.0129006393511
0.0128995948374
0.00101999409771
0.00101999409771
0.00101999409771
0.00101999409771
0.00101999409771
0.00101999409771
0.00101999409771
0.00101999409771
0.00101999409771
0.00101999409771
0.00101999409771
0.00101999409771
0.00101999409772
0.00101999409833
0.00101999413199
0.00101999594374
0.00102009367408
0.00102219906998
0.00104648075609
0.00120592090656
0.00176786241346
0.00312795273082
0.00563196373896
0.00914650846665
0.012503366824
0.014448995829
0.0150533005188
0.0150977992258
0.0150109208161
0.0149038237451
0.0147974095219
0.0146945206816
0.0145949321054
0.0144989411343
0.0144066463275
0.0143176461152
0.0142317022907
0.0141485606918
0.0140680513925
0.0139897411005
0.0139137526147
0.0138402850606
0.0137686757444
0.0136990561786
0.0136316459261
0.0135658174159
0.013501783233
0.0134398475004
0.0133794713312
0.0133209317611
0.0132645061965
0.0132096317093
0.0131563281639
0.0131052747289
0.0130566455984
0.0130099591933
0.0129652314361
0.0129230918718
0.0128836227863
0.0128462837628
0.0128111681576
0.0127786631324
0.0127488204394
0.0127220130358
0.0126982710218
0.0126769462677
0.0126580287418
0.0126418321829
0.0126284088487
0.0126242990167
0.00101999409771
0.00101999409771
0.00101999409771
0.00101999409771
0.00101999409771
0.00101999409771
0.00101999409771
0.00101999409771
0.00101999409771
0.00101999409771
0.00101999409771
0.00101999409771
0.00101999409776
0.00101999410074
0.00101999426483
0.00102000297653
0.00102046489638
0.00102683275015
0.00108308884644
0.00136407502258
0.00218895515707
0.00396075876971
0.00693322503903
0.0105634918415
0.0134420465421
0.0147570073589
0.0150378978225
0.0149879515868
0.0148739266369
0.0147534710683
0.0146364252219
0.0145240222351
0.0144160978968
0.014312403576
0.0142127489109
0.0141168549507
0.0140244438657
0.0139353017323
0.0138491998781
0.013765902807
0.0136853151204
0.0136070312918
0.0135311075087
0.0134577270131
0.0133863218069
0.0133170678037
0.0132501665118
0.013185021287
0.0131219118134
0.0130612021989
0.0130022779023
0.0129453144203
0.0128906103534
0.0128376969373
0.0127868126549
0.0127387325542
0.0126933926736
0.0126500235189
0.0126086729669
0.0125698538211
0.0125337115221
0.0125006162632
0.0124705743696
0.012442953833
0.0124178101161
0.0123955329662
0.0123760837428
0.0123592635988
0.0123449182315
0.0123385535725
0.00101999409771
0.00101999409771
0.00101999409771
0.00101999409771
0.00101999409771
0.00101999409771
0.00101999409771
0.00101999409771
0.00101999409771
0.00101999409771
0.00101999409771
0.00101999409771
0.001019994098
0.00101999411403
0.00101999498639
0.00102004172774
0.00102149407098
0.00103829628958
0.00115742554531
0.00161798189093
0.00279452869336
0.00506256086593
0.00843669595948
0.0119204264326
0.0141360451467
0.0148903425772
0.0149546686051
0.0148477110092
0.014714754217
0.0145830846842
0.0144565985351
0.0143353196488
0.0142192213249
0.0141080135405
0.0140013837095
0.0138990131216
0.0138005674779
0.0137057686677
0.0136144156921
0.0135262948122
0.0134412189746
0.013358963948
0.0132793786675
0.0132021114202
0.0131273069051
0.0130551508868
0.0129850148501
0.0129171142067
0.0128518162682
0.0127885846942
0.012727603754
0.012669083647
0.012612388349
0.0125575675301
0.012505478172
0.0124563652656
0.0124095479962
0.0123648055371
0.0123227480697
0.0122835804838
0.0122468420203
0.0122126250308
0.0121812143779
0.0121525183896
0.0121265690174
0.0121037740824
0.012084134131
0.0120669039367
0.0120520208673
0.0120442785842
0.00101999409771
0.00101999409771
0.00101999409771
0.00101999409771
0.00101999409771
0.00101999409771
0.00101999409771
0.00101999409771
0.00101999409771
0.00101999409771
0.00101999409771
0.00101999409774
0.00101999409952
0.00101999419714
0.00101999936021
0.00102027134203
0.00102460852322
0.00106636766759
0.00129940814207
0.00202015878592
0.00364932472169
0.00645508239655
0.0100502227753
0.0130809305654
0.0145589055102
0.014887637146
0.0148229937856
0.0146821512558
0.0145348061938
0.0143927343306
0.0142571332262
0.0141275533441
0.0140040426559
0.0138859697155
0.0137727200042
0.0136641845185
0.0135600554132
0.0134600405802
0.0133638161647
0.0132711995998
0.0131820578018
0.0130961031781
0.0130127239
0.0129320964454
0.0128545565217
0.0127794119423
0.0127067182113
0.0126367586923
0.0125689974937
0.012503685975
0.0124411229461
0.0123806325816
0.0123224229811
0.0122668806827
0.0122135868489
0.0121627012706
0.0121148429484
0.012069872038
0.0120270397928
0.0119864487353
0.0119486065445
0.0119139770839
0.0118825688961
0.011853595401
0.0118270107434
0.0118032104396
0.0117822202358
0.0117640070921
0.0117485423142
0.0117392177272
0.00101999409771
0.00101999409771
0.00101999409771
0.00101999409771
0.00101999409771
0.00101999409771
0.00101999409771
0.00101999409771
0.00101999409771
0.00101999409771
0.00101999409771
0.0010199940979
0.00101999410847
0.00101999468805
0.0010200257381
0.00102127133859
0.00103549283419
0.00113912002071
0.00155768951643
0.00265446961217
0.00481360694777
0.00810331810079
0.0116121239577
0.0139267709053
0.0147327729258
0.014787048562
0.0146522922005
0.0144907411259
0.0143319926389
0.0141807430319
0.0140369442544
0.0138998448573
0.0137694249239
0.0136450052601
0.0135258553613
0.0134117837915
0.013302427696
0.0131977013709
0.0130972628487