/*--------------------------------*- C++ -*----------------------------------*\
| =========                 |                                                 |
| \\      /  F ield         | foam-extend: Open Source CFD                    |
|  \\    /   O peration     | Version:     4.1                                |
|   \\  /    A nd           | Web:         http://www.foam-extend.org         |
|    \\/     M anipulation  |                                                 |
\*---------------------------------------------------------------------------*/
FoamFile
{
    version     2.0;
    format      ascii;
    class       volScalarField;
    location    "0.0006";
    object      T;
}
// * * * * * * * * * * * * * * * * * * * * * * * * * * * * * * * * * * * * * //

dimensions      [0 0 0 1 0 0 0];

internalField   nonuniform List<scalar> 
8400
(
226.8362966
226.8362966
226.8362966
226.8362966
226.8362966
226.8362966
226.8362966
226.8362966
226.8362966
226.8362966
226.8362966
226.8362966
226.8362966
226.8362966
226.8362966
226.8362966
226.8362966
226.8362966
226.8362966
226.836296609
226.836297112
226.836325374
226.837943814
226.871628599
462.195859186
3145.85632897
6682.98471395
12228.6046961
14482.9398209
16024.2041438
16964.097919
17418.7270374
17584.2706085
17633.5290016
17648.4494116
17655.0644462
17659.6905791
17663.8157932
17667.8444262
17671.9209808
17676.1224562
17680.556549
17684.4059931
17689.3627364
17694.5724443
17700.1007419
17705.9974721
17712.307018
17719.0201553
17726.1591387
17733.7076356
17741.6382406
17749.9305628
17758.5665512
17767.6358152
17776.0795634
17785.6008336
17795.1590697
17804.748361
17814.1554289
17823.2521834
17831.9488585
17840.1970308
17847.7943568
17854.6385433
17860.5967766
17865.5552335
17869.4455869
17872.232184
17881.6507918
226.836296597
226.836296597
226.836296597
226.836296597
226.836296597
226.836296597
226.836296597
226.836296597
226.836296597
226.836296597
226.836296597
226.836296597
226.836296597
226.836296597
226.836296597
226.836296597
226.836296597
226.836296597
226.836296597
226.836296642
226.836299252
226.836444425
226.844636872
226.953274042
1461.43416744
5216.06632379
10071.3814497
13271.0536459
15217.1385429
16524.2976516
17253.0127488
17564.937673
17666.2501501
17696.4290181
17708.3471401
17716.5312088
17723.9755934
17731.3085538
17738.6821385
17746.161163
17753.7587191
17761.4985941
17769.4274432
17777.5437364
17785.8610648
17794.4062302
17803.1878234
17812.2745704
17821.6607768
17831.3045696
17841.1728256
17851.2873945
17861.6661007
17872.2276865
17882.9530373
17893.7773245
17904.6177594
17915.3856095
17925.9656196
17936.2186182
17946.021856
17955.3031895
17963.9429595
17971.8023251
17978.7725301
17984.7557338
17989.6861363
17993.5309698
17996.2444716
18003.7775607
226.836296595
226.836296595
226.836296595
226.836296595
226.836296595
226.836296595
226.836296595
226.836296595
226.836296595
226.836296595
226.836296595
226.836296595
226.836296595
226.836296595
226.836296595
226.836296595
226.836296595
226.836296595
226.836296599
226.836296836
226.836310399
226.837088525
226.859643781
321.849030312
2717.523782
6140.67224502
11749.1301604
14190.7043962
15865.2660831
16918.3193024
17445.5574536
17643.0601745
17700.6508939
17719.5201743
17728.7622468
17736.2430189
17743.4161864
17750.5831607
17757.8210942
17765.1248875
17773.3607093
17780.9376622
17788.7510387
17796.7891649
17805.0609338
17813.6043558
17822.4591391
17831.5907137
17840.9601801
17850.5932298
17860.5568496
17870.7556403
17881.095016
17891.5581584
17902.2356123
17912.1559057
17922.8556523
17933.3467516
17943.6024491
17953.483568
17962.9296744
17971.8061186
17980.0043264
17987.4146597
17993.945835
17999.5525104
18004.1678016
18007.7439236
18010.2544739
18016.5724409
226.836296594
226.836296594
226.836296594
226.836296594
226.836296594
226.836296594
226.836296594
226.836296594
226.836296594
226.836296594
226.836296594
226.836296594
226.836296594
226.836296594
226.836296594
226.836296594
226.836296594
226.836296595
226.836296614
226.83629776
226.836362227
226.840061511
226.901513678
786.804509215
4557.87554341
8480.40387386
12770.8609777
14883.1429935
16322.45784
17161.5330076
17540.080725
17667.2575715
17703.5292795
17716.7999008
17725.3328226
17732.8768319
17740.2153977
17747.5381649
17754.8979483
17762.3308536
17769.8873881
17778.3855115
17786.1519146
17794.1642866
17802.4510752
17811.0070155
17819.8770112
17829.020373
17838.4156003
17848.0926932
17858.1414195
17867.4788244
17877.8224397
17888.2550824
17898.7981874
17909.327099
17919.7960504
17930.0778358
17940.0973784
17949.7229929
17958.8961957
17967.461286
17975.3336987
17982.4348379
17988.6922908
17994.0594482
17998.4627381
18001.8549143
18004.2182699
18009.8206533
226.836296594
226.836296594
226.836296594
226.836296594
226.836296594
226.836296594
226.836296594
226.836296594
226.836296594
226.836296594
226.836296594
226.836296594
226.836296594
226.836296594
226.836296594
226.836296594
226.836296594
226.836296595
226.836296656
226.836300243
226.836499832
226.847698079
226.986624938
1867.64557818
5438.6725972
10556.0250321
13505.2440881
15384.4065784
16626.5663662
17298.9793761
17575.0123452
17660.183852
17686.166209
17697.6703224
17706.3519637
17714.3959654
17722.2946089
17730.1230665
17737.9469268
17745.8243983
17753.7937764
17761.8828714
17770.1627319
17778.629201
17787.3117926
17796.2235307
17805.3849407
17814.8717855
17824.6139257
17834.5489409
17844.6835652
17855.092758
17865.6465274
17876.3244982
17887.0013033
17897.6019417
17908.0708929
17918.3993172
17928.4283161
17938.0153254
17947.0658021
17955.5762459
17962.5032291
17969.6177552
17975.844176
17981.1268949
17985.4058212
17988.673521
17990.9483523
17996.1625904
226.836296593
226.836296593
226.836296593
226.836296593
226.836296593
226.836296593
226.836296593
226.836296593
226.836296593
226.836296593
226.836296593
226.836296593
226.836296593
226.836296593
226.836296593
226.836296593
226.836296593
226.836296596
226.836296782
226.836307527
226.836924979
226.857393373
293.678194041
2617.48503247
6014.4484901
11557.5208604
14058.0426256
15754.6369103
16826.8687424
17368.5493456
17573.527255
17634.0258969
17655.0495132
17666.3414067
17675.7160702
17684.5865399
17693.2710268
17701.9039619
17710.4971398
17719.1283084
17727.8410167
17736.6490057
17745.6107634
17754.7385568
17764.0708163
17773.6097684
17783.383375
17793.4083105
17803.7088519
17814.2434574
17824.8966158
17835.6513481
17846.611585
17857.6605098
17868.7221913
17879.6936899
17889.6330995
17900.1452463
17910.3211057
17920.0638286
17929.2612599
17937.7944063
17945.6040476
17952.6383391
17958.8695162
17964.1860365
17968.491791
17971.7490378
17973.961075
17978.8280174
226.836296593
226.836296593
226.836296593
226.836296593
226.836296593
226.836296593
226.836296593
226.836296593
226.836296593
226.836296593
226.836296593
226.836296593
226.836296593
226.836296593
226.836296593
226.836296593
226.836296593
226.836296602
226.836297116
226.836326205
226.837999639
226.872776393
472.770144883
3191.84859083
6734.62629597
12271.2621939
14505.8280765
16037.3610532
16958.2850667
17395.1821804
17548.9846858
17595.0456685
17613.5748041
17625.2683237
17635.6496381
17645.6068218
17655.408652
17665.0887514
17674.6757805
17684.2163152
17693.7889119
17703.4648826
17713.2652724
17723.2875984
17733.4699888
17743.816265
17754.3579362
17765.1272522
17776.1037934
17787.3047287
17797.8545216
17809.2938558
17820.8042352
17832.3635903
17843.8888968
17855.2700232
17866.4172632
17877.2550226
17887.7073859
17897.7140493
17907.0949116
17915.8214277
17923.77533
17930.9961916
17936.4750672
17941.9253002
17946.3079072
17949.6335258
17951.8716711
17956.58791
226.836296593
226.836296593
226.836296593
226.836296593
226.836296593
226.836296593
226.836296593
226.836296593
226.836296593
226.836296593
226.836296593
226.836296593
226.836296593
226.836296593
226.836296593
226.836296593
226.836296593
226.836296617
226.836298008
226.836376378
226.840879001
226.912001787
915.51510674
4739.56719086
8858.11547727
12832.7825239
14875.2833488
16251.4210042
17043.8256598
17394.6496725
17511.5631678
17547.1448683
17563.4903639
17576.5852757
17587.9424439
17599.001407
17609.9031882
17620.6806998
17631.3795874
17642.0293496
17652.7303592
17663.4804909
17674.2639589
17685.2027113
17695.5318587
17706.8261453
17718.34806
17729.9930361
17741.7578722
17753.6740637
17765.6973884
17777.8156547
17789.9658044
17802.0984392
17814.2341846
17826.1715622
17837.8488934
17848.3730911
17859.2382275
17869.5469085
17879.2557038
17888.2938703
17896.5191962
17903.8774549
17910.3238707
17915.8116139
17920.2754885
17923.647603
17925.9073089
17930.465541
226.836296593
226.836296593
226.836296593
226.836296593
226.836296593
226.836296593
226.836296593
226.836296593
226.836296593
226.836296593
226.836296593
226.836296593
226.836296593
226.836296593
226.836296593
226.836296593
226.836296594
226.836296648
226.836299813
226.836475827
226.846347019
226.972498774
1669.16862356
5325.44166936
10253.5901564
13308.513868
15183.6796069
16416.3738354
17089.5132953
17371.5952827
17461.5324658
17491.2854461
17507.4634826
17520.702304
17533.1431046
17545.3105988
17557.2961008
17569.2267973
17581.0685611
17592.8516842
17604.6313294
17616.44548
17628.3168809
17640.2860462
17652.4000621
17664.6507875
17677.0298444
17689.5313015
17702.2358293
17715.0660065
17727.9298231
17740.8769991
17752.9334944
17765.8077366
17778.5021855
17791.0085876
17803.2390231
17815.0838369
17826.4040294
17837.1153609
17847.1864747
17856.5465328
17865.1015934
17871.8805087
17878.562501
17884.1790087
17888.746194
17892.1861611
17894.4810341
17898.9319014
226.836296592
226.836296592
226.836296592
226.836296592
226.836296592
226.836296592
226.836296592
226.836296592
226.836296592
226.836296592
226.836296592
226.836296592
226.836296592
226.836296592
226.836296592
226.836296592
226.836296594
226.836296705
226.836303233
226.836677416
226.853798509
249.711293002
2399.18740617
5771.16119735
11114.3743838
13729.3803394
15444.2395534
16542.1832635
17108.8013589
17331.1595274
17402.1220323
17428.3421717
17444.8744768
17459.2590901
17473.0291557
17486.4717554
17499.7172647
17512.8424339
17525.8161481
17538.7347613
17551.6308237
17564.6219062
17577.6124486
17590.6383597
17603.8184477
17617.1282147
17630.5915349
17643.289888
17656.83358
17670.5009636
17684.2531974
17697.9707625
17711.6482953
17725.17918
17738.5402385
17751.693448
17763.7143488
17776.082956
17787.8775947
17799.0606132
17809.5377481
17819.1887296
17827.9563212
17835.8237888
17842.6869716
17848.4672291
17853.1654731
17856.7056015
17859.080959
17863.4616951
226.836296592
226.836296592
226.836296592
226.836296592
226.836296592
226.836296592
226.836296592
226.836296592
226.836296592
226.836296592
226.836296592
226.836296592
226.836296592
226.836296592
226.836296592
226.836296592
226.836296598
226.836296912
226.836314725
226.837330069
226.863606631
357.429783336
2817.72249622
6236.18067263
11770.7132284
14108.8796119
15671.2717406
16631.0561441
17102.9506419
17278.6646029
17334.9873346
17359.2480762
17376.6384911
17392.2937762
17407.4553621
17422.24972
17436.7921774
17451.1564256
17465.4352996
17479.5975494
17493.7101073
17507.8295135
17521.1749959
17535.3602413
17549.6299455
17563.9685554
17578.3191304
17592.7519715
17607.2801509
17621.8656896
17636.5174705
17650.3014069
17664.7735412
17679.0215996
17693.0636444
17706.8486136
17720.2127169
17733.1291874
17745.4827036
17756.2369044
17767.1356562
17777.1434705
17786.3192277
17794.4883692
17801.5606221
17807.4778607
17812.2155045
17815.7843355
17818.1864965
17822.4691488
226.836296592
226.836296592
226.836296592
226.836296592
226.836296592
226.836296592
226.836296592
226.836296592
226.836296592
226.836296592
226.836296592
226.836296592
226.836296592
226.836296592
226.836296592
226.836296593
226.836296606
226.836297378
226.836341005
226.83885193
226.885570845
606.68887912
3814.5150416
7055.03415542
12341.9665254
14456.1699961
15864.4768678
16694.2628422
17079.0750015
17215.3088512
17261.6321002
17284.8572224
17303.2396333
17320.3456165
17336.8658233
17353.0649556
17369.0588714
17384.0129564
17399.5689417
17415.0402627
17430.3376641
17445.633551
17460.9136735
17476.1579332
17491.4988409
17506.9731286
17521.5937582
17537.1126645
17552.5775121
17568.0525494
17583.5218694
17598.9170689
17614.1281309
17629.2422652
17643.1789873
17657.5985121
17671.5084653
17684.9654137
17697.7279876
17709.7729323
17721.0276697
17731.5409264
17740.1333065
17748.6392928
17755.922502
17761.9854593
17766.8335903
17770.4882441
17772.9565652
17777.1653745
226.836296592
226.836296592
226.836296592
226.836296592
226.836296592
226.836296592
226.836296592
226.836296592
226.836296592
226.836296592
226.836296592
226.836296592
226.836296592
226.836296592
226.836296592
226.836296593
226.836296628
226.836298679
226.836412645
226.842818547
226.934728326
1162.73888809
4978.87374637
9251.57575971
12857.6885995
14768.2849819
16026.8478522
16731.4200894
17039.5384845
17144.2129593
17183.0945325
17205.8705456
17225.3037157
17243.7844065
17261.130166
17278.7514358
17296.0507368
17313.1382146
17329.9993468
17346.741619
17363.3215351
17379.8735816
17395.5905142
17412.0616359
17428.5053354
17444.9074157
17461.3738061
17477.8816308
17494.3697915
17509.9777497
17526.3865242
17542.5802084
17558.599237
17574.3676397
17589.8215688
17604.9642845
17618.6469036
17632.672544
17645.8853452
17658.3847354
17670.0702062
17680.9062222
17690.6887329
17699.2956705
17706.7979694
17712.2033822
17717.2995228
17721.0542498
17723.5416607
17727.6015333
226.836296592
226.836296592
226.836296592
226.836296592
226.836296592
226.836296592
226.836296592
226.836296592
226.836296592
226.836296592
226.836296592
226.836296592
226.836296592
226.836296592
226.836296592
226.836296594
226.836296676
226.836301348
226.83655631
226.850407417
227.01656489
2079.24956894
5507.21339262
10513.5460325
13324.4619929
15052.1607575
16155.8253737
16743.8967859
16984.827001
17065.480583
17099.6964281
17122.7831985
17142.7367879
17162.7092122
17182.0792356
17201.1259682
17219.8542099
17238.330608
17255.7920589
17273.8621148
17291.7457774
17309.4751246
17327.0734476
17344.687725
17362.3232644
17379.0968475
17396.6325875
17414.0760028
17431.5430727
17448.8528762
17466.1129349
17482.3390838
17499.153681
17515.6269924
17531.7567333
17547.432805
17562.6176116
17576.297448
17590.0363376
17602.9799647
17615.0535917
17626.1905894
17636.2911314
17645.2334535
17652.9012444
17659.2292011
17664.3470037
17667.3334636
17669.9992793
17673.9660178
226.836296592
226.836296592
226.836296592
226.836296592
226.836296592
226.836296592
226.836296592
226.836296592
226.836296592
226.836296592
226.836296592
226.836296592
226.836296592
226.836296592
226.836296592
226.836296596
226.836296838
226.836310509
226.837077328
226.860450096
311.025451223
2661.28823336
6007.04682769
11367.6002849
13755.5366017
15300.3268079
16253.0038176
16731.8272796
16916.4545988
16980.3149645
17011.3420788
17035.165798
17057.2682723
17078.6609002
17099.6273318
17119.367496
17139.5153655
17159.2797854
17178.7495533
17198.1228293
17217.2024851
17235.4540312
17254.3914182
17273.1578717
17291.7700878
17310.4487595
17328.254382
17346.7060285
17365.1120016
17383.2445631
17401.2840618
17419.1886322
17435.8772583
17453.0999158
17469.8710123
17486.1395909
17501.9250693
17516.9671017
17530.2383522
17543.6600568
17556.102461
17567.5029795
17577.895298
17587.0858704
17594.9506895
17601.457029
17606.6994213
17610.7747999
17612.5035609
17617.2983134
226.836296592
226.836296592
226.836296592
226.836296592
226.836296592
226.836296592
226.836296592
226.836296592
226.836296592
226.836296592
226.836296592
226.836296592
226.836296592
226.836296592
226.836296592
226.836296604
226.836297306
226.836336096
226.838508635
226.880639022
531.68752104
3374.26658259
6708.6100486
12062.2740149
14151.1863536
15517.7686494
16320.8196045
16698.771234
16838.5280845
16889.9204346
16919.8097708
16944.8634177
16968.5619475
16990.8302681
17013.2116635
17035.1246542
17056.6191296
17077.8571657
17097.8946877
17118.5395358
17138.9302427
17159.1519549
17178.4295923
17198.3462364
17218.0768535
17237.7422962
17257.3477021
17275.96974
17295.2645225
17314.3341564
17333.1471244
17351.8435415
17369.2300443
17387.1986942
17404.5751749
17421.4103003
17437.5829198
17453.1885952
17467.0123635
17480.7697972
17493.5028392
17505.2270408
17515.7980254
17525.1367517
17533.1715569
17539.9103377
17545.3067346
17549.3762009
17551.0424867
17554.660067
226.836296592
226.836296592
226.836296592
226.836296592
226.836296592
226.836296592
226.836296592
226.836296592
226.836296592
226.836296592
226.836296592
226.836296592
226.836296592
226.836296592
226.836296593
226.836296632
226.836298896
226.836423029
226.843279851
226.940623155
1185.90371232
4969.97126674
9027.08292303
12676.4164154
14514.9086427
15697.6929982
16359.0940915
16649.199608
16752.6287765
16795.7591593
16825.2380823
16850.8625313
16876.0902156
16900.6692499
16924.6563735
16947.3552889
16970.2833889
16992.7738175
17014.9713384
17036.1163049
17057.6883285
17079.1121561
17100.299826
17120.5706546
17141.4203277
17162.1012087
17182.5619908
17202.9378388
17222.3031567
17242.3009283
17262.0155887
17281.3218111
17300.2568787
17317.9309253
17335.9898364
17353.3708301
17370.0792263
17386.0914636
17400.2472073
17414.4284459
17427.5104381
17439.463977
17450.2239928
17459.7787466
17467.994783
17474.9234039
17479.4661554
17483.5508457
17486.1501991
17489.5243024
226.836296592
226.836296592
226.836296592
226.836296592
226.836296592
226.836296592
226.836296592
226.836296592
226.836296592
226.836296592
226.836296592
226.836296592
226.836296592
226.836296592
226.836296594
226.836296704
226.836302785
226.836629813
226.853557509
235.642417664
2267.55436842
5599.18253003
10558.7246401
13225.1828568
14833.6313748
15839.1352966
16366.3050989
16581.9209025
16660.0582628
16698.4979264
16727.7226439
16755.3933061
16782.1430257
16807.4468218
16832.8760995
16857.6017939
16882.0147915
16905.1715096
16928.7013973
16951.8350225
16973.9522495
16996.4866814
17018.7747777
17040.8901691
17061.9518172
17083.6518314
17105.1067029
17126.3629027
17146.5786814
17167.3631989
17187.7041713
17207.8035866
17226.6600281
17245.7717003
17264.3022208
17282.2150443
17299.4309893
17315.8237586
17330.3457788
17344.8934847
17358.2470494
17370.4025634
17381.3798837
17391.0796008
17399.5089876
17405.5458105
17411.1222998
17415.1641241
17417.7298234
17420.8756568
226.836296592
226.836296592
226.836296592
226.836296592
226.836296592
226.836296592
226.836296592
226.836296592
226.836296592
226.836296592
226.836296592
226.836296592
226.836296592
226.836296592
226.8362966
226.836297053
226.836321888
226.837687415
226.869616909
395.426791007
2891.63147011
6239.28983441
11527.6441111
13717.2742782
15108.7235988
15938.5857173
16344.7948816
16501.3415824
16561.6256148
16597.8909241
16628.72644
16657.887071
16685.4749563
16713.0109939
16739.1450588
16765.3123574
16790.9815939
16815.5036416
16840.2319276
16864.5489726
16888.5664418
16911.5087858
16934.8569368
16958.0011964
16980.0951986
17002.7675437
17025.0758992
17047.2122454
17068.1932507
17089.6964283
17110.7999415
17131.6115208
17150.9236105
17170.6794729
17189.7264398
17208.0579835
17225.7047309
17241.5940955
17257.4270022
17272.1185659
17285.73488
17298.1928317
17309.4595812
17318.357986
17326.8365294
17333.8294098
17339.3861077
17343.4762041
17346.0640393
17349.0258993
226.836296592
226.836296592
226.836296592
226.836296592
226.836296592
226.836296592
226.836296592
226.836296592
226.836296592
226.836296592
226.836296592
226.836296592
226.836296592
226.836296592
226.836296623
226.836298359
226.836392064
226.841501576
226.920895853
918.540890424
4664.41471929
7769.1706837
12304.0635184
14157.787299
15333.5844435
15997.8676545
16298.8218612
16410.6034695
16460.3516903
16495.8773851
16527.3672883
16558.0211883
16587.8805435
16616.1706579
16644.4181478
16671.3398024
16698.2021946
16724.6649208
16749.8484218
16775.3935486
16800.4674054
16824.4571763
16848.942049
16873.0484526
16896.0921194
16919.5675678
16942.7975478
16965.7974968
16987.4550695
17009.6852367
17031.4187401
17052.8598864
17072.7034588
17092.9025823
17112.4309495
17131.3272641
17148.4050504
17165.5209426
17181.5673422
17196.501948
17210.333882
17222.9828322
17233.3906732
17243.4009725
17251.9271786
17259.0101159
17264.6061827
17268.6853278
17271.265856
17274.0430573
226.836296592
226.836296592
226.836296592
226.836296592
226.836296592
226.836296592
226.836296592
226.836296592
226.836296592
226.836296592
226.836296592
226.836296592
226.836296592
226.836296594
226.836296707
226.836302879
226.836627288
226.853356852
229.326881867
2191.41452191
5517.74194662
10217.1250119
12969.8635821
14536.974082
15507.5835406
16018.8769245
16231.891861
16313.0452708
16356.9681051
16391.9993901
16425.4455686
16456.9620926
16488.2156145
16517.8992492
16547.4914915
16576.3658888
16603.9091714
16631.5713431
16657.9696047
16684.4922926
16710.7587777
16735.7791467
16761.1118966
16786.174326
16810.0673404
16834.3650684
16858.4693508
16881.2451925
16904.5339545
16927.382045
16949.787585
16970.7663197
16992.1152643
17012.7292747
17032.7060136
17050.9237134
17069.2695375
17086.6008809
17102.9136107
17118.1664052
17131.1839552
17143.9725151
17155.3564822
17165.3947678
17173.990963
17181.12625
17186.7509037
17190.8594757
17193.5068597
17195.215249
226.836296592
226.836296592
226.836296592
226.836296592
226.836296592
226.836296592
226.836296592
226.836296592
226.836296592
226.836296592
226.836296592
226.836296592
226.836296592
226.836296602
226.836297177
226.836328086
226.837995871
226.874317221
428.443335241
2959.59091772
6260.17922991
11431.2956831
13539.9539466
14851.8962749
15623.9062248
16000.3352615
16147.8352988
16209.9803598
16251.3618454
16287.9388241
16322.1262193
16355.0256663
16387.654572
16418.6219714
16449.5306193
16479.6381591
16508.3949779
16537.1368368
16564.6861605
16592.3245167
16619.5575585
16645.4314225
16671.7834003
16696.8735706
16722.3940719
16747.4630131
16772.2093808
16795.6772616
16819.5660242
16843.0574601
16865.0686362
16887.4926372
16909.2017476
16930.336383
16949.5657915
16969.1044828
16987.6437766
17005.3137212
17020.8017896
17036.1523767
17050.2701016
17063.112394
17074.5918087
17084.7747396
17092.4159008
17099.6272692
17105.243263
17109.3191188
17111.8625972
17114.2136472
226.836296592
226.836296592
226.836296592
226.836296592
226.836296592
226.836296592
226.836296592
226.836296592
226.836296592
226.836296592
226.836296592
226.836296592
226.836296593
226.836296643
226.836299438
226.836447833
226.844319334
226.953645712
1232.38120222
4947.75994593
8396.20439579
12315.6340967
14031.6639347
15098.333286
15688.1755958
15951.0058944
16052.4864255
16104.666646
16144.8212381
16182.6514123
16218.2372773
16253.3130938
16286.4938672
16319.475389
16350.8541039
16382.0880932
16411.9655034
16441.8065531
16470.2536976
16498.9719646
16526.2605099
16553.8889539
16581.061155
16606.9350341
16633.2148037
16659.0154285
16683.4989821
16708.4350081
16732.9827051
16755.9013213
16779.3219246
16802.1969214
16823.3580565
16844.6949841
16865.2081932
16884.9677319
16902.7710525
16920.5459079
16937.1889347
16952.6596451
16966.8542172
16979.8171471
16990.3035438
17000.4493687
17009.0943609
17016.2409216
17021.8872362
17025.9638252
17028.4572374
17030.5141711
226.836296592
226.836296592
226.836296592
226.836296592
226.836296592
226.836296592
226.836296592
226.836296592
226.836296592
226.836296592
226.836296592
226.836296592
226.836296597
226.836296868
226.836311645
226.837104527
226.8621832
297.839536308
2571.1133868
5805.80551766
10634.7940087
13032.5733516
14432.9193443
15272.5919521
15701.5385243
15876.668896
15950.7651834
15997.4807976
16038.7070914
16077.1573573
16114.1103338
16150.4858503
16185.0261703
16219.1957653
16251.7308608
16283.3632819
16314.8495793
16345.7625693
16375.0958498
16404.6683076
16432.8054592
16461.2344093
16488.2974468
16515.6797505
16542.6391586
16568.1693222
16594.1600476
16619.663466
16643.6369237
16668.0185738
16691.8056729
16714.0184297
16736.4244398
16757.985876
16778.7656453
16797.6629939
16816.6222467
16834.4987994
16851.2951383
16865.6893338
16879.9552942
16892.8816018
16904.4074353
16914.5480093
16923.1757871
16930.3147112
16934.8395205
16938.9474189
16941.4322193
16943.3148064
226.836296592
226.836296592
226.836296592
226.836296592
226.836296592
226.836296592
226.836296592
226.836296592
226.836296592
226.836296592
226.836296592
226.836296592
226.836296622
226.836298277
226.836385967
226.841018336
226.915423343
790.884689367
4315.37076719
6883.27138844
11808.5983013
13628.0871296
14744.9200176
15377.166032
15669.4807042
15785.7781857
15844.9456801
15890.053892
15932.24247
15971.9107228
16010.1807924
16047.7299038
16083.3898473
16118.0772485
16152.3809187
16184.979043
16217.4847358
16248.4160009
16279.4404309
16308.9448417
16338.5977123
16366.8882686
16395.3864568
16423.4622118
16450.0208727
16477.0294137
16503.4924262
16528.5009165
16553.7950279
16578.6213383
16601.6739881
16625.0717721
16647.7166608
16668.4921678
16689.4320569
16709.3520165
16728.4414169
16745.226891
16762.0731758
16777.5726852
16791.7872538
16804.7240814
16815.0621371
16825.2395831
16833.8024402
16840.8497666
16846.3921251
16850.3961962
16852.8722151
16854.5348376
226.836296592
226.836296592
226.836296592
226.836296592
226.836296592
226.836296592
226.836296592
226.836296592
226.836296592
226.836296592
226.836296592
226.836296595
226.836296773
226.836306498
226.83682748
226.858292823
256.535310334
2364.25739467
5591.67653604
10034.6647208
12678.5751823
14106.3157212
14968.2379386
15415.8392614
15604.9102305
15685.8971735
15737.9173583
15783.1295904
15826.3364044
15867.2704778
15906.6216512
15945.3629901
15982.1780106
16017.6972691
16052.9591286
16086.3983364
16119.8153372
16151.5252635
16182.4754046
16213.4616083
16243.8601034
16272.6657427
16301.8317895
16329.4537359
16357.4473008
16383.9456359
16410.7549412
16436.9910282
16461.6326279
16486.6048137
16510.9235852
16533.4551573
16556.2560073
16578.1577985
16599.2381479
16618.1834308
16637.2034924
16655.0738601
16671.8879796
16686.2393068
16700.4370517
16713.2225381
16724.6285899
16734.5632172
16743.1309483
16748.9892724
16754.4994069
16758.4161118
16760.8209719
16762.2359716
226.836296592
226.836296592
226.836296592
226.836296592
226.836296592
226.836296592
226.836296592
226.836296592
226.836296592
226.836296592
226.836296592
226.836296619
226.836298084
226.836374537
226.84036843
226.907442298
707.474407738
3962.52246346
6614.54135334
11523.3645628
13363.0068781
14470.9712282
15100.0723259
15396.1681245
15517.7016133
15581.0217788
15630.9188368
15676.9040564
15721.3648997
15763.3900639
15803.8720216
15842.8925409
15881.2040741
15917.7406153
15953.0007281
15988.0539807
16021.2288584
16054.5467975
16086.0460445
16117.6953369
16147.7520217
16178.0240057
16206.7142523
16235.7100193
16263.0777302
16290.7628071
16317.9000322
16343.3710154
16369.2369762
16393.3693072
16417.8185638
16441.448334
16464.3379842
16485.1540761
16506.1959188
16526.2488579
16544.1284875
16561.8999131
16578.5053533
16593.8718331
16608.0238551
16619.4945915
16630.8722406
16640.7280674
16649.1132117
16656.0374808
16661.4382703
16665.3018168
16667.6612121
16668.832582
226.836296592
226.836296592
226.836296592
226.836296592
226.836296592
226.836296592
226.836296592
226.836296592
226.836296592
226.836296592
226.836296596
226.836296805
226.836308102
226.836904269
226.859948067
263.276687723
2385.80980764
5581.31095223
9838.36291527
12504.2115366
13894.9476712
14720.8911175
15150.6582081
15335.9321162
15419.0506933
15475.2951877
15524.9952996
15571.953544
15616.7870866
15659.9152797
15702.016245
15741.9436036
15780.383285
15818.2807852
15854.2945408
15889.1676811
15923.7712347
15956.694119
15989.6784656
16020.799097
16052.1996176
16081.928535
16111.9895561
16140.2775189
16168.9560794
16195.9035662
16223.2285846
16249.8739474
16274.7139341
16299.9599505
16324.4952646
16346.9683408
16369.8088875
16391.774283
16411.5470496
16431.4459974
16450.2637377
16468.0060901
16483.2334608
16498.5118371
16512.3749716
16524.8972615
16536.0367247
16545.8303903
16552.8348152
16559.6761437
16564.9133138
16568.6753964
16570.9678688
16571.8882255
226.836296592
226.836296592
226.836296592
226.836296592
226.836296592
226.836296592
226.836296592
226.836296592
226.836296592
226.836296593
226.836296633
226.83629878
226.836408978
226.842008782
226.928769281
864.661524059
4385.34060459
6727.61020815
11495.1378555
13240.97995
14281.414995
14861.4170388
15134.5278525
15250.4554314
15316.3443732
15370.5042509
15420.7989626
15468.6817066
15514.4593585
15558.3461202
15600.5661417
15641.0970987
15681.0143925
15718.8419937
15755.3670597
15791.5266456
15825.8114124
15860.0266547
15892.3963514
15924.8467214
15955.5672922
15986.5421741
16015.7360801
16045.3553331
16073.1183615
16101.1899656
16127.6044004
16154.2753233
16180.2936383
16204.3934046
16228.8598348
16252.4131388
16273.9234192
16295.73771
16316.5333488
16335.0828533
16353.692043
16371.0763876
16387.3724187
16402.4168618
16414.8116398
16427.1998275
16438.0969679
16447.6470596
16455.7550121
16462.4838253
16466.3085219
16470.0469638
16472.2792314
16472.9665182
226.836296592
226.836296592
226.836296592
226.836296592
226.836296592
226.836296592
226.836296592
226.836296592
226.836296592
226.8362966
226.836297049
226.836320176
226.837494358
226.869044619
330.220669261
2636.98717611
5779.56406503
10142.0414837
12515.3147877
13787.6761764
14530.3291311
14908.466138
15072.0849026
15153.4034368
15213.2720275
15266.7217567
15317.8522616
15366.5221084
15413.0081603
15458.2835808
15501.1011402
15542.2193693
15581.8430355
15620.0445304
15657.856064
15693.5424193
15729.1274125
15762.7452886
15795.414412
15828.1056318
15858.9223016
15890.0402115
15919.3680008
15948.8930566
15976.6639724
16004.8622079
16032.3148152
16057.8977833
16083.7894204
16108.9180115
16132.0066
16155.3839344
16177.9751636
16198.3079109
16218.88488
16238.2670478
16256.663246
16272.5510702
16288.5586248
16303.3265064
16316.8069828
16327.6048394
16338.326824
16347.6035591
16355.531383
16362.0088999