/*--------------------------------*- C++ -*----------------------------------*\
| =========                 |                                                 |
| \\      /  F ield         | foam-extend: Open Source CFD                    |
|  \\    /   O peration     | Version:     4.1                                |
|   \\  /    A nd           | Web:         http://www.foam-extend.org         |
|    \\/     M anipulation  |                                                 |
\*---------------------------------------------------------------------------*/
FoamFile
{
    version     2.0;
    format      ascii;
    class       volVectorField;
    location    "0.0006";
    object      U;
}
// * * * * * * * * * * * * * * * * * * * * * * * * * * * * * * * * * * * * * //

dimensions      [0 1 -1 0 0 0 0];

internalField   nonuniform List<vector> 
8400
(
(16999.9999935 5.29037511911e-09 4.72234368137e-11)
(16999.9999935 5.37368227723e-09 4.70556276239e-11)
(16999.9999935 5.45538779878e-09 4.6886838528e-11)
(16999.9999935 5.53551509046e-09 4.67226362529e-11)
(16999.9999935 5.6140892909e-09 4.65701667443e-11)
(16999.9999935 5.69113515619e-09 4.64180163083e-11)
(16999.9999935 5.76667615402e-09 4.62688000209e-11)
(16999.9999935 5.84073614406e-09 4.6124377061e-11)
(16999.9999935 5.91333904963e-09 4.59835119503e-11)
(16999.9999936 5.98450832598e-09 4.58460028252e-11)
(16999.9999936 6.05426698763e-09 4.57120260389e-11)
(16999.9999936 6.12263848033e-09 4.5581418346e-11)
(16999.9999936 6.18964581103e-09 4.54538848752e-11)
(16999.9999936 6.25531143399e-09 4.53263366491e-11)
(16999.9999936 6.31965809101e-09 4.5209279653e-11)
(16999.9999936 6.38270753872e-09 4.5089500568e-11)
(16999.9999936 6.44449089357e-09 4.47947035049e-11)
(16999.9999936 6.50553139039e-09 3.43405765563e-11)
(16999.9999936 6.59480499797e-09 -5.54278288581e-10)
(16999.9999935 8.35729682903e-09 -3.35742269479e-08)
(16999.9999848 9.59715861198e-08 -1.73600680756e-06)
(16999.9994559 5.04576605552e-06 -9.53075233124e-05)
(16999.9703374 1.80043932795e-05 -0.00102145948589)
(16997.2844329 0.00772946774354 -0.00976482864716)
(16942.2664295 -1.10782195457 -0.0716187623757)
(16380.5615127 -8.5095963014 -0.112547913866)
(14026.5375978 -31.6563868623 -0.016410777895)
(10167.1947064 -51.3154011063 0.0432158317948)
(6487.98637546 -57.3178779389 0.0364080982743)
(3798.62734115 -44.3545510351 0.023657266941)
(2200.93217795 -15.4285108351 0.0138245804683)
(1443.53707145 22.0216516478 0.00725366287516)
(1165.2341463 60.520301841 0.00368840025305)
(1074.74185204 96.3546582752 0.00222923776773)
(1036.52736442 128.763252671 0.00173891551023)
(1009.56188172 157.930192741 0.00156489380818)
(983.971260995 184.212789347 0.00147939456728)
(957.660869073 207.964054755 0.00141803263728)
(930.330114554 229.499772682 0.00136345490418)
(902.074518429 249.095510151 0.00131082546103)
(873.050195181 266.99118409 0.00125946900137)
(843.475886862 283.395745668 0.00120898084555)
(813.315106901 298.486230097 0.00115652129756)
(782.670050683 312.440780251 0.00110136895668)
(751.812212485 325.392982415 0.00104576516871)
(720.753656923 337.468037013 0.000989948904106)
(689.551486464 348.776862247 0.00093305406555)
(658.261186207 359.416668639 0.00087473143691)
(626.932307222 369.472868222 0.000814301663406)
(595.626085548 379.019735489 0.000750743767744)
(564.423730343 388.11985297 0.000683009462914)
(533.390437748 396.824223691 0.000610160939176)
(502.536251091 405.173956662 0.000530907585506)
(471.826500746 413.201693327 0.000443968937051)
(441.336015281 420.930364938 0.000346413621526)
(410.912408897 428.369466893 0.00023199770101)
(380.593698536 435.536266689 9.65009019247e-05)
(350.623870235 442.416184363 -6.25212248508e-05)
(320.968141353 448.994532179 -0.000251658497551)
(291.635019331 455.248668381 -0.000480043557382)
(262.606057512 461.150077845 -0.000757989037096)
(233.879191401 466.664334462 -0.00109884957159)
(205.486242563 471.75214611 -0.00151985705521)
(177.4684548 476.370113812 -0.00204274706575)
(149.859443564 480.473507176 -0.0026946012973)
(122.681996258 484.017163523 -0.00350933498527)
(95.9365397954 486.957683111 -0.00452977238528)
(69.6263463823 489.255009543 -0.00580966528159)
(43.8164364455 490.873329806 -0.00738135163405)
(31.1082786279 491.766052444 -0.0088236644973)
(16999.9999955 3.5043897976e-09 4.32748116616e-13)
(16999.9999955 3.56054771347e-09 5.3338174567e-13)
(16999.9999956 3.61565469478e-09 6.32209564838e-13)
(16999.9999956 3.66972586453e-09 7.27225754905e-13)
(16999.9999956 3.72277630613e-09 8.20415330948e-13)
(16999.9999956 3.77482080762e-09 9.11095222613e-13)
(16999.9999956 3.82587428202e-09 9.98989837887e-13)
(16999.9999956 3.87595111452e-09 1.08455350904e-12)
(16999.9999956 3.92506602166e-09 1.16694349096e-12)
(16999.9999956 3.9732340876e-09 1.24746940257e-12)
(16999.9999956 4.02046944322e-09 1.3258273403e-12)
(16999.9999956 4.06678646568e-09 1.40195830892e-12)
(16999.9999956 4.11219938597e-09 1.47723785811e-12)
(16999.9999956 4.15672257472e-09 1.54937647638e-12)
(16999.9999956 4.20037072751e-09 1.61917590002e-12)
(16999.9999956 4.24315917322e-09 1.68434008822e-12)
(16999.9999956 4.28520084535e-09 1.59346323839e-12)
(16999.9999956 4.33230927974e-09 -7.42417724056e-12)
(16999.9999956 4.72286419256e-09 -5.27336789767e-10)
(16999.9999948 2.50626827978e-08 -2.85947491205e-08)
(16999.9999496 1.18146699995e-06 -1.57755182599e-06)
(16999.9972063 6.81982023206e-05 -4.33012222137e-05)
(16999.8472919 0.00342126031107 -0.000486807509458)
(16985.3780151 0.332507462158 -0.00721518165402)
(16824.4780207 2.19445019582 -0.032411963782)
(15646.1849593 16.8636329454 -0.0343209222779)
(12520.8354621 52.8057091979 -0.00249906304563)
(8579.86609559 105.832330172 0.010434364506)
(5218.2234059 158.845225929 0.00867218966167)
(2958.95296777 205.576373468 0.00596470770643)
(1724.044626 245.094749458 0.00375996789741)
(1194.73311834 277.666601555 0.00225045983295)
(1012.450475 304.975787055 0.00146246582812)
(945.768647137 329.275928935 0.00116416510108)
(908.164685995 351.729675981 0.00107132696237)
(877.050888292 372.719678559 0.00103688281204)
(847.427090083 392.397687148 0.00101446219311)
(818.233365951 410.86603535 0.000992699563601)
(789.266143404 428.21591821 0.000969503756089)
(760.501150207 444.534020079 0.000944709452455)
(731.945331762 459.898694987 0.000918193092724)
(703.599535888 474.400101951 0.00088995673683)
(675.466388249 488.107131226 0.000859927173007)
(647.558920212 501.095063594 0.000828023398907)
(619.889626732 513.427241476 0.000794416073182)
(592.473177301 525.163763383 0.000759003716581)
(565.314491751 536.360234014 0.000721449676177)
(538.41975258 547.067320501 0.00068145129448)
(511.806699921 557.32920787 0.000638628040562)
(485.499407768 567.183381327 0.000592461532545)
(459.524412016 576.660515076 0.000542296872607)
(433.897223644 585.785530756 0.000487395068998)
(408.610713158 594.577345932 0.000426902186469)
(383.639402996 603.049181691 0.000359782806549)
(358.977167578 611.207347892 0.000284839305356)
(334.629640454 619.052515388 0.000200742042149)
(310.603235844 626.573952311 0.000106076780236)
(286.927577123 633.759710967 -5.80958471899e-07)
(263.637937238 640.590195314 -0.000120560337291)
(240.745963376 647.040542032 -0.000254965038981)
(218.235341651 653.082839324 -0.000404592775819)
(196.095839636 658.687087204 -0.00056977074539)
(174.332701225 663.821396033 -0.000750023984256)
(152.957957344 668.453210876 -0.000943591605876)
(131.977601547 672.550517117 -0.0011467746697)
(111.380752264 676.082989474 -0.00135322068852)
(91.1474344462 679.023554888 -0.00155308435556)
(71.2708788094 681.349607199 -0.00173184069595)
(51.7927942877 683.043124617 -0.0018614847755)
(42.2794191586 683.936838308 -0.00186955644286)
(16999.9999967 2.0414030913e-09 -1.76743104174e-12)
(16999.9999967 2.07546338299e-09 -1.75356973264e-12)
(16999.9999967 2.10892294989e-09 -1.74017029346e-12)
(16999.9999967 2.14178849358e-09 -1.72699586902e-12)
(16999.9999967 2.17406694937e-09 -1.71379804341e-12)
(16999.9999967 2.20576557643e-09 -1.7007778388e-12)
(16999.9999967 2.23689148635e-09 -1.68760795951e-12)
(16999.9999967 2.26745197957e-09 -1.67385583198e-12)
(16999.9999967 2.29745399533e-09 -1.66079165183e-12)
(16999.9999967 2.32690475532e-09 -1.64796837421e-12)
(16999.9999967 2.35581176172e-09 -1.63369665682e-12)
(16999.9999967 2.38418206712e-09 -1.61996970242e-12)
(16999.9999967 2.41202319977e-09 -1.60721571561e-12)
(16999.9999967 2.43934241276e-09 -1.59443678188e-12)
(16999.9999967 2.46614712077e-09 -1.58166012158e-12)
(16999.9999967 2.49246032666e-09 -1.57411385392e-12)
(16999.9999967 2.51922711599e-09 -1.83240674626e-12)
(16999.9999967 2.60234208182e-09 -1.73992994132e-11)
(16999.9999967 6.06388495451e-09 -9.01989876246e-10)
(16999.9999926 2.08459973536e-07 -4.72412157199e-08)
(16999.9997436 1.24543756217e-05 -2.64098092573e-06)
(16999.985602 0.000689590436946 -3.85695051442e-05)
(16998.7899959 0.0603424164781 -0.000422517000613)
(16960.7176817 1.52965236552 -0.00507319698964)
(16569.1841306 14.7759004977 -0.0127861767811)
(14580.6938528 84.3745956445 -0.0067842117466)
(10849.4900534 215.318432542 0.00196308744574)
(7024.9696914 351.563824446 0.00331126407102)
(4103.45552602 460.085688639 0.00250029084012)
(2301.2512974 533.887624476 0.0016750096049)
(1408.08680124 578.89338778 0.0010521727222)
(1063.69273094 605.171029874 0.000677564573797)
(945.990666623 622.841467787 0.000525741532784)
(893.104784269 637.653718996 0.000495265058472)
(855.720908119 651.458712445 0.00050378390455)
(822.207307038 664.713064563 0.000518561613132)
(790.178309352 677.516100941 0.000531240717909)
(759.110929888 689.898088205 0.000540385349285)
(728.872868145 701.875585499 0.000546050216941)
(699.334693241 713.467437854 0.000548497691339)
(670.615558432 724.681639274 0.000547967758228)
(642.675178698 735.527186659 0.000544579789627)
(615.29859922 746.040670807 0.000538268016733)
(588.526455823 756.233330782 0.000529035374303)
(562.346375014 766.121343505 0.000516989291402)
(536.744313863 775.720236096 0.000502087133004)
(511.709597866 785.044288685 0.00048417928944)
(487.224287432 794.107062279 0.000463112543195)
(463.259240216 802.920172756 0.000438726928105)
(439.794120103 811.490882184 0.000410767377984)
(416.836489825 819.824194063 0.000378930000431)
(394.388842184 827.927563747 0.000343026324768)
(372.418804132 835.789886469 0.000302733760768)
(350.880216808 843.409385348 0.000257559545183)
(329.819002309 850.775131646 0.000207175712839)
(309.056945011 857.882602875 0.000151344977483)
(288.61460602 864.71643096 8.98024944131e-05)
(268.695199113 871.244231868 2.24212169627e-05)
(249.205561129 877.44725313 -5.06925102218e-05)
(230.107290093 883.300769652 -0.000129218361726)
(211.389610981 888.77743912 -0.00021263046189)
(193.066468703 893.848819657 -0.000300121895533)
(175.153109566 898.486436367 -0.000390516782129)
(157.648243336 902.663179472 -0.000482236644874)
(140.512160587 906.355689869 -0.000573317428964)
(123.689626212 909.544448802 -0.000661486512502)
(107.144469181 912.213055849 -0.000744293680157)
(90.8765542311 914.347647922 -0.000819296918784)
(74.9359628366 915.935936547 -0.00088295793577)
(67.162767054 916.752341179 -0.00091288541572)
(16999.9999975 1.2859481944e-09 -8.90568109152e-13)
(16999.9999975 1.30777981859e-09 -8.95642178499e-13)
(16999.9999975 1.32923885724e-09 -9.0040555555e-13)
(16999.9999975 1.35032957789e-09 -9.05000042573e-13)
(16999.9999975 1.37105566615e-09 -9.09692460423e-13)
(16999.9999975 1.39142091548e-09 -9.13853283162e-13)
(16999.9999975 1.41142947564e-09 -9.17816436019e-13)
(16999.9999975 1.43108496066e-09 -9.21472164206e-13)
(16999.9999975 1.45039157673e-09 -9.24978099905e-13)
(16999.9999975 1.46935350009e-09 -9.27786591035e-13)
(16999.9999975 1.48797506056e-09 -9.3072658241e-13)
(16999.9999975 1.5062607503e-09 -9.33798052333e-13)
(16999.9999975 1.52421433926e-09 -9.35939067597e-13)
(16999.9999975 1.54184023671e-09 -9.38795158673e-13)
(16999.9999975 1.55914456614e-09 -9.4152583712e-13)
(16999.9999975 1.57624596208e-09 -9.51573616918e-13)
(16999.9999975 1.59998973835e-09 -1.36112245228e-12)
(16999.9999975 2.03713515197e-09 -2.45018451254e-11)
(16999.9999971 2.69920358631e-08 -1.32131557246e-09)
(16999.9999774 1.48651640913e-06 -6.83064234504e-08)
(16999.998771 9.0227924208e-05 -3.7328126934e-06)
(16999.9324801 0.0048743559228 -4.04699502267e-05)
(16993.559072 0.47421633743 -0.000540969465517)
(16896.6131317 6.26561729457 -0.00386576880149)
(16059.0759974 56.0543300708 -0.00586679838032)
(13319.8466684 215.440190856 -0.00134692526556)
(9393.53589959 446.509322762 0.00143218300917)
(5830.06547168 656.218479805 0.00134165243514)
(3327.33617558 805.086278754 0.000944688333592)
(1896.74288434 892.831624856 0.000608359540942)
(1250.55838482 935.089964612 0.00037452979119)
(1019.70573547 952.282756828 0.000254530110481)
(935.728497309 960.346163445 0.000219776488248)
(889.417462531 966.144862878 0.000223584001586)
(852.00489168 971.507520937 0.000238380683028)
(817.318280998 976.824197062 0.000254827189745)
(784.100170797 982.165667396 0.000270382089476)
(752.075138332 987.54009843 0.000284332001296)
(721.151365343 992.944411483 0.0002963873922)
(691.259418236 998.374951401 0.00030639676051)
(662.266767418 1003.83686403 0.000314311123302)
(634.254990525 1009.30907599 0.000320043882394)
(607.206538016 1014.78624063 0.000323440931474)
(580.921188764 1020.2781254 0.000324399140381)
(555.407615242 1025.77713117 0.000322840757691)
(530.635928686 1031.2787085 0.000318669090262)
(506.582600404 1036.77691261 0.000311784758186)
(483.213366762 1042.26500635 0.000302078865524)
(460.463110599 1047.73850755 0.000289426080786)
(438.333371061 1053.18703798 0.00027369313939)
(416.985441703 1058.5856451 0.000254754636301)
(396.152350479 1063.93886041 0.000232510549967)
(375.689077325 1069.24329639 0.000206885288783)
(355.80592461 1074.46275947 0.000177840580946)
(336.440896637 1079.58251251 0.000145335609507)
(317.556910166 1084.58249056 0.000109313943005)
(299.151822028 1089.44552472 6.98771323385e-05)
(281.21332636 1094.14348558 2.73191423217e-05)
(263.697399419 1098.65141126 -1.80163778653e-05)
(246.579180548 1102.94359762 -6.57282091096e-05)
(229.87309866 1106.99266976 -0.000115327824746)
(213.592237969 1110.77126249 -0.000166170647648)
(197.714084546 1114.25744986 -0.000217390212482)
(182.203883997 1117.42102356 -0.00026807123494)
(167.032311285 1120.24391833 -0.000317322106889)
(152.183071377 1122.70911621 -0.0003641940943)
(137.644462863 1124.80382551 -0.000407745316612)
(123.395000277 1126.51996323 -0.000447093104044)
(109.431006553 1127.85101604 -0.000481059510317)
(102.589047751 1128.52689992 -0.000496986944138)
(16999.999998 8.66015055688e-10 -3.90274331901e-13)
(16999.999998 8.80844486426e-10 -3.9465834755e-13)
(16999.999998 8.95426214509e-10 -3.98766323805e-13)
(16999.999998 9.09762211732e-10 -4.02943815041e-13)
(16999.999998 9.23854967287e-10 -4.07069712633e-13)
(16999.999998 9.37706656582e-10 -4.11459734006e-13)
(16999.999998 9.51320065001e-10 -4.15700073403e-13)
(16999.999998 9.64697475463e-10 -4.19323445958e-13)
(16999.999998 9.77841008736e-10 -4.22889803321e-13)
(16999.999998 9.90753621676e-10 -4.2682940988e-13)
(16999.999998 1.00343783814e-09 -4.30306197031e-13)
(16999.999998 1.0158960126e-09 -4.33740192202e-13)
(16999.999998 1.02813135331e-09 -4.36908714455e-13)
(16999.999998 1.04014692534e-09 -4.40227367288e-13)
(16999.999998 1.05195357982e-09 -4.4380165575e-13)
(16999.999998 1.06404368891e-09 -4.57748885143e-13)
(16999.999998 1.10523826998e-09 -1.09894063202e-12)
(16999.9999979 2.86568452777e-09 -3.78357559964e-11)
(16999.9999969 1.05328154191e-07 -2.04010786092e-09)
(16999.9999352 6.04568177178e-06 -1.12464242088e-07)
(16999.9961984 0.000363552587692 -3.33378580568e-06)
(16999.790539 0.019746406515 -3.67085511215e-05)
(16980.0807847 1.88371920398 -0.000599183107272)
(16779.9700374 18.8643741079 -0.00232669693681)
(15429.3837697 132.714575996 -0.00213303721611)
(12139.6512218 403.05382588 -2.88480425991e-05)
(8211.79295356 725.232161617 0.000694620149035)
(4954.93562041 990.620652927 0.000555635948757)
(2811.50115416 1163.89929849 0.000373172790074)
(1667.91934141 1254.53250664 0.000231024454923)
(1192.1583062 1288.99642822 0.000141050210838)
(1027.98011068 1296.6882764 0.000103252504433)
(960.958102866 1296.17147963 9.85816669428e-05)
(917.524532067 1294.00801696 0.000106687719218)
(879.936785963 1291.77978081 0.000118125432978)
(844.55661073 1289.7961521 0.000130113186239)
(810.629990593 1288.1079324 0.000141857852022)
(777.978552164 1286.71538379 0.000153032777463)
(746.529364566 1285.61066037 0.00016341608482)
(716.22610853 1284.78516118 0.000172815813653)
(687.008459771 1284.23177165 0.000181044859318)
(658.80975422 1283.94743991 0.000187935197166)
(631.577755957 1283.91818469 0.000193359704199)
(605.274952399 1284.13613448 0.000197170629312)
(579.863938243 1284.59159434 0.000199188906731)
(555.304047363 1285.27525812 0.000199269468371)
(531.538436923 1286.17846536 0.000197297591659)
(508.528155872 1287.28902354 0.000193166287546)
(486.253178372 1288.59173548 0.00018676860319)
(464.689032374 1290.07269248 0.000178013080305)
(443.804840647 1291.7166841 0.000166824993344)
(423.546190284 1293.50461801 0.000153128550286)
(403.855080835 1295.42842015 0.000136921825803)
(384.728984445 1297.46301812 0.000118281890196)
(366.197829597 1299.57974105 9.72631435735e-05)
(348.245277421 1301.7561675 7.3950868472e-05)
(330.798187747 1303.97798323 4.85484687453e-05)
(313.789482249 1306.21837571 2.13065807841e-05)
(297.216154067 1308.45255848 -7.50077557588e-06)
(281.117321583 1310.64965228 -3.75212502586e-05)
(265.508214635 1312.78271217 -6.8339243027e-05)
(250.42058413 1314.82409306 -9.94934693695e-05)
(235.56929268 1316.7780542 -0.000130472897195)
(220.911998903 1318.62678813 -0.000160744797467)
(206.680309888 1320.32536072 -0.00018977373964)
(192.829742651 1321.86115826 -0.000217042586407)
(179.360635455 1323.22118599 -0.000242069214685)
(166.224813776 1324.40109317 -0.000264417444151)
(153.372899663 1325.39988622 -0.000283598414364)
(147.045062696 1325.90473335 -0.000292609812)
(16999.9999983 6.1345834032e-10 -1.7760326299e-13)
(16999.9999983 6.24022560262e-10 -1.8022399802e-13)
(16999.9999983 6.3441214905e-10 -1.8253967728e-13)
(16999.9999983 6.44628637718e-10 -1.84459969179e-13)
(16999.9999983 6.5467386975e-10 -1.86972288529e-13)
(16999.9999983 6.64549417449e-10 -1.89484509558e-13)
(16999.9999983 6.74256937285e-10 -1.91176560239e-13)
(16999.9999983 6.83798116428e-10 -1.93404436343e-13)
(16999.9999983 6.93174366709e-10 -1.95817815649e-13)
(16999.9999983 7.02387350652e-10 -1.98057502212e-13)
(16999.9999983 7.11438893634e-10 -2.0056594597e-13)
(16999.9999983 7.20330393567e-10 -2.02600273419e-13)
(16999.9999983 7.29063557721e-10 -2.04992901261e-13)
(16999.9999983 7.37641070951e-10 -2.07026767489e-13)
(16999.9999983 7.46093985475e-10 -2.0875561925e-13)
(16999.9999983 7.56157253669e-10 -2.27865943247e-13)
(16999.9999983 8.71987630287e-10 -1.23185176004e-12)
(16999.9999982 7.33373841211e-09 -5.8105827968e-11)
(16999.999995 3.91336347568e-07 -3.04907525513e-09)
(16999.999801 2.36651864352e-05 -1.71281718954e-07)
(16999.9885864 0.00136078072135 -2.6964347377e-06)
(16999.0826646 0.110170002766 -3.37852897892e-05)
(16964.527971 4.07129593081 -0.000471265337097)
(16613.7043217 42.3849709733 -0.00128029923938)
(14742.4996069 243.648157157 -0.00073172124815)
(11090.874256 629.525914582 0.000182636936293)
(7267.17931316 1029.91511115 0.000331510401015)
(4312.06479642 1335.51330347 0.000241232906105)
(2471.82307373 1521.29109106 0.000153548215979)
(1550.53097473 1607.92233867 8.98142958151e-05)
(1192.10853293 1632.80374374 5.40258295125e-05)
(1068.00761086 1631.74997278 4.28667013188e-05)
(1010.2336433 1623.74689381 4.50936202905e-05)
(968.16927586 1614.60910289 5.18781162594e-05)
(930.267671671 1605.65652122 5.98211695389e-05)
(894.268685939 1597.13225114 6.80007709002e-05)
(859.704612006 1589.0726941 7.61364684824e-05)
(826.452743408 1581.47553309 8.40760253361e-05)
(794.450438623 1574.33255503 9.16846473786e-05)
(763.643086096 1567.63544836 9.8824278697e-05)
(733.979690903 1561.37607703 0.000105350034339)
(705.400472554 1555.54790151 0.000111113437327)
(677.846273473 1550.14497177 0.000115967613163)
(651.271273859 1545.15912458 0.000119767328657)
(625.643931104 1540.5809237 0.000122370634844)
(600.926391957 1536.40109429 0.000123644144855)
(577.057317664 1532.61257101 0.000123466432565)
(553.974072522 1529.20756438 0.000121731415829)
(531.654451464 1526.17224568 0.00011834442577)
(510.115461046 1523.48729868 0.00011323327305)
(489.343479381 1521.13982903 0.000106364789734)
(469.258625889 1519.1133971 9.77198161628e-05)
(449.772479216 1517.40101079 8.72970067881e-05)
(430.848357117 1515.98596794 7.51498729317e-05)
(412.529288741 1514.83959881 6.13770149848e-05)
(394.926425797 1513.92405279 4.61063859089e-05)
(377.807992451 1513.2443812 2.9503790051e-05)
(361.082866841 1512.78938884 1.17749374483e-05)
(344.889383339 1512.51766487 -6.83418704002e-06)
(329.181249745 1512.41124718 -2.60408689035e-05)
(313.995553539 1512.44235128 -4.55263154747e-05)
(299.295507804 1512.59323406 -6.4958897604e-05)
(284.97349202 1512.8548504 -8.401804243e-05)
(270.950752885 1513.22438816 -0.000102354158866)
(257.235749892 1513.68377305 -0.000119585846754)
(243.889162735 1514.20320557 -0.000135375019393)
(230.947561053 1514.76771918 -0.00014943506145)
(218.38385768 1515.37169435 -0.000161501911075)
(206.142262043 1516.01615912 -0.00017131902556)
(200.048686287 1516.34794978 -0.00017580383175)
(16999.9999986 4.52019772686e-10 -8.37344549207e-14)
(16999.9999986 4.59837313747e-10 -8.48494832475e-14)
(16999.9999986 4.67526669724e-10 -8.62962099247e-14)
(16999.9999986 4.7508835168e-10 -8.73229586321e-14)
(16999.9999986 4.82523447552e-10 -8.84793593974e-14)
(16999.9999986 4.89833825921e-10 -9.02519614925e-14)
(16999.9999986 4.97020682038e-10 -9.14707346409e-14)
(16999.9999986 5.04085070254e-10 -9.24668011472e-14)
(16999.9999986 5.11028752814e-10 -9.33775925108e-14)
(16999.9999986 5.17852941905e-10 -9.49113445878e-14)
(16999.9999986 5.24558825879e-10 -9.60004940987e-14)
(16999.9999986 5.31147175104e-10 -9.72280361197e-14)
(16999.9999986 5.37619282984e-10 -9.86769572903e-14)
(16999.9999986 5.43977520888e-10 -9.97242026361e-14)
(16999.9999986 5.50322589366e-10 -1.01509425206e-13)
(16999.9999986 5.62533580121e-10 -1.28638369675e-13)
(16999.9999985 9.28987337648e-10 -1.63790485577e-12)
(16999.9999984 2.2289300473e-08 -8.64111262891e-11)
(16999.9999896 1.27726171638e-06 -4.49182680987e-09)
(16999.9994548 7.76207241557e-05 -2.50402395123e-07)
(16999.9697218 0.00429334391671 -3.14013075691e-06)
(16997.2030009 0.400017666414 -3.76725521775e-05)
(16941.0247896 7.86668963716 -0.000334696875377)
(16369.2678653 82.1122308204 -0.000632059734327)
(14002.9988659 387.873232027 -0.000207208646593)
(10154.4063804 882.533576178 0.000145513406325)
(6498.792188 1346.87009679 0.000150411625351)
(3830.81080341 1679.83619068 0.000102115232344)
(2249.86033825 1869.49644409 6.1449250371e-05)
(1504.34998005 1948.20412981 3.38057281825e-05)
(1229.0309372 1963.50615105 2.03464221847e-05)
(1130.05762134 1955.01254347 1.79587510534e-05)
(1077.57860518 1940.72381624 2.08936714949e-05)
(1036.0684587 1925.62310018 2.55525560296e-05)
(997.756682079 1910.8266698 3.07179065153e-05)
(961.16180779 1896.54133203 3.60668554594e-05)
(925.971265409 1882.80685971 4.14759334201e-05)
(892.10149849 1869.62845855 4.68496852625e-05)
(859.500447356 1857.00504723 5.20944470725e-05)
(828.116410157 1844.93458782 5.71099183154e-05)
(797.891957694 1833.41519487 6.17870168798e-05)
(768.771188878 1822.44524215 6.60099060391e-05)
(740.700165778 1812.02269962 6.96582404295e-05)
(713.644589415 1802.14169576 7.26148650072e-05)
(687.578760936 1792.79813754 7.47727160689e-05)
(662.453933224 1783.97975543 7.60238807995e-05)
(638.20739304 1775.68702763 7.6262307292e-05)
(614.791523466 1767.91531468 7.54010211644e-05)
(592.191212092 1760.654148 7.33721829909e-05)
(570.481551786 1753.87813558 7.01263325822e-05)
(549.474933674 1747.59969262 6.56383042106e-05)
(529.087805515 1741.81527688 5.99078271193e-05)
(509.419682109 1736.49404982 5.29605937134e-05)
(490.370856025 1731.6343238 4.48525249921e-05)
(471.942589344 1727.21805499 3.56749683318e-05)
(454.158247707 1723.22206468 2.55489464245e-05)
(436.99297011 1719.62746555 1.46212471324e-05)
(420.371477735 1716.43562797 3.0732227939e-06)
(404.252413231 1713.62684427 -8.88784770016e-06)
(388.657867391 1711.1823945 -2.10379334978e-05)
(373.597997658 1709.08163746 -3.31322010317e-05)
(359.046271243 1707.30959213 -4.49138765096e-05)
(344.933458468 1705.86023813 -5.61238880432e-05)
(331.253969437 1704.72084803 -6.65031474072e-05)
(317.777952894 1703.91257278 -7.57974139106e-05)
(304.548490323 1703.41721547 -8.3768465165e-05)
(291.842832663 1703.18203711 -9.01996434955e-05)
(279.593555482 1703.20675513 -9.49008296159e-05)
(267.731411939 1703.49339349 -9.77125587316e-05)
(261.790498814 1703.64924408 -9.87543678091e-05)
(16999.9999987 3.43873405825e-10 -3.91006893531e-14)
(16999.9999987 3.49842156041e-10 -3.98525206835e-14)
(16999.9999987 3.55713138585e-10 -4.05513020086e-14)
(16999.9999987 3.61487722325e-10 -4.13298175202e-14)
(16999.9999987 3.67166432258e-10 -4.13275563202e-14)
(16999.9999987 3.72750208853e-10 -4.2021009335e-14)
(16999.9999987 3.78240009506e-10 -4.26085757209e-14)
(16999.9999987 3.83636830458e-10 -4.33700545102e-14)
(16999.9999987 3.8894145683e-10 -4.37537604957e-14)
(16999.9999987 3.94155285506e-10 -4.44712625656e-14)
(16999.9999987 3.99279135667e-10 -4.50895638465e-14)
(16999.9999987 4.04314813618e-10 -4.54781368272e-14)
(16999.9999987 4.09262285781e-10 -4.61118839391e-14)
(16999.9999987 4.14127499428e-10 -4.66845020671e-14)
(16999.9999987 4.19225099105e-10 -4.81902135924e-14)
(16999.9999987 4.43134434055e-10 -7.83331105056e-14)
(16999.9999987 1.58374614093e-09 -1.70959202793e-12)
(16999.9999983 6.87411031547e-08 -9.11484894135e-11)
(16999.9999746 4.00880187019e-06 -4.62088159374e-09)
(16999.9985243 0.000244647036047 -2.47742510942e-07)
(16999.9183441 0.0134593758756 -2.61747661325e-06)
(16992.1405153 1.30319445638 -3.49559410553e-05)
(16883.0954742 18.1805711789 -0.000211186807527)
(15978.524273 156.526099392 -0.000278067370332)
(13183.4950252 578.64199135 -5.03383569439e-05)
(9314.25154532 1161.21577907 6.36464889671e-05)
(5861.2606167 1674.38824637 5.25605406902e-05)
(3463.33983572 2022.60619018 3.38322462927e-05)
(2108.53749933 2208.3998608 1.95888558932e-05)
(1505.6337257 2276.00319382 1.0786860406e-05)
(1291.13503768 2281.75407761 7.44412310629e-06)
(1208.87741049 2266.62990865 7.9087563189e-06)
(1159.37968828 2246.88376305 1.01080390108e-05)
(1117.86259921 2226.60093801 1.29670895939e-05)
(1079.12753859 2206.65714509 1.61336073015e-05)
(1041.9392267 2187.26910549 1.94837263054e-05)
(1006.12331857 2168.47309192 2.2941562398e-05)
(971.613329288 2150.28357952 2.64359464023e-05)
(938.359254797 2132.71037467 2.98926537838e-05)
(906.315211881 2115.76028063 3.32331003492e-05)
(875.450417997 2099.43549371 3.6374036235e-05)
(845.727358193 2083.7385011 3.9228193005e-05)
(817.076604755 2068.6765114 4.17062086023e-05)
(789.507977587 2054.24197715 4.3719112863e-05)
(762.834574815 2040.46006569 4.51807002706e-05)
(737.027506996 2027.32745983 4.60098867747e-05)
(712.2153702 2014.81467971 4.61334850073e-05)
(688.27785271 2002.93509698 4.54905595938e-05)
(665.165780598 1991.68831748 4.40352593344e-05)
(642.878163268 1981.06499667 4.17393040491e-05)
(621.407120692 1971.05352371 3.85958778384e-05)
(600.705811521 1961.65785327 3.46198130569e-05)
(580.716886272 1952.87926516 2.98474639663e-05)
(561.383429471 1944.71024198 2.43434355348e-05)
(542.687229466 1937.14502392 1.82002957027e-05)
(524.629051994 1930.16940563 1.15311355888e-05)
(507.277861581 1923.75703694 4.47135612524e-06)
(490.45662528 1917.92566237 -2.81716426272e-06)
(474.129124006 1912.67115563 -1.01517225041e-05)
(458.416309918 1907.96171718 -1.73370217744e-05)
(443.210882786 1903.80235533 -2.41715204956e-05)
(428.513838532 1900.17908396 -3.04436826945e-05)
(414.319420085 1897.08228439 -3.59403454194e-05)
(400.585684144 1894.51405629 -4.04568233414e-05)
(387.263892581 1892.46282878 -4.37835095468e-05)
(374.341247609 1890.92870403 -4.57222324502e-05)
(361.828874034 1889.89886185 -4.61107488051e-05)
(349.723499138 1889.36456199 -4.48076582204e-05)
(338.003796819 1889.32048022 -4.16960999487e-05)
(332.098594918 1889.31786566 -3.9808361119e-05)
(16999.9999989 2.68727926424e-10 -1.73425358975e-14)
(16999.9999989 2.73408572039e-10 -1.7573715612e-14)
(16999.9999989 2.78012597686e-10 -1.79337735629e-14)
(16999.9999989 2.82540997933e-10 -1.82778710408e-14)
(16999.9999989 2.86994984118e-10 -1.85707287993e-14)
(16999.9999989 2.91374055816e-10 -1.89866873467e-14)
(16999.9999989 2.95679633324e-10 -1.91272103023e-14)
(16999.9999989 2.99912338452e-10 -1.96878768716e-14)
(16999.9999989 3.0407257875e-10 -2.00281109746e-14)
(16999.9999989 3.08161258369e-10 -2.06268510673e-14)
(16999.9999989 3.12179474332e-10 -2.10489750996e-14)
(16999.9999989 3.16128089128e-10 -2.11519893293e-14)
(16999.9999989 3.20007793854e-10 -2.14330241692e-14)
(16999.9999989 3.23834473223e-10 -2.17258871837e-14)
(16999.9999989 3.28442928373e-10 -2.25309415028e-14)
(16999.9999989 3.82989718189e-10 -3.79394688401e-14)
(16999.9999989 3.36966284866e-09 -8.37614678365e-13)
(16999.999998 1.78136504788e-07 -4.18732548756e-11)
(16999.9999444 1.03244043482e-05 -2.08225100962e-09)
(16999.9967066 0.000621661633345 -7.70632678183e-08)
(16999.81901 0.0339344146117 -6.83979131171e-07)
(16982.796093 3.23401684866 -8.63077743709e-06)
(16802.927967 35.1796433601 -3.04040588991e-05)
(15550.504091 256.031731934 -3.19481563583e-05)
(12396.6831333 803.113588973 -1.70081948435e-05)
(8549.99069293 1465.05755322 -1.1500980183e-05)
(5324.6642298 2011.73058507 -9.4421548811e-06)
(3183.3254339 2363.91342186 -6.43968485792e-06)
(2029.4316944 2538.99748193 -3.27032058459e-06)
(1543.51523903 2593.01911273 -4.8654018909e-07)