/*--------------------------------*- C++ -*----------------------------------*\
| =========                 |                                                 |
| \\      /  F ield         | foam-extend: Open Source CFD                    |
|  \\    /   O peration     | Version:     4.1                                |
|   \\  /    A nd           | Web:         http://www.foam-extend.org         |
|    \\/     M anipulation  |                                                 |
\*---------------------------------------------------------------------------*/
FoamFile
{
    version     2.0;
    format      ascii;
    class       volScalarField;
    location    "0.0001";
    object      eMoins;
}
// * * * * * * * * * * * * * * * * * * * * * * * * * * * * * * * * * * * * * //

dimensions      [0 0 0 0 0 0 0];

internalField   nonuniform List<scalar> 
8400
(
9.91207424149e-163
9.91207424157e-163
9.91207424164e-163
9.91207424171e-163
9.91207424178e-163
9.91207424185e-163
9.91207424191e-163
9.91207424198e-163
9.91207424205e-163
9.91207424211e-163
9.91207424218e-163
9.91207424224e-163
9.9120742423e-163
9.91207424237e-163
9.91207424243e-163
9.91207424249e-163
9.91207424255e-163
9.91207424261e-163
9.91207424267e-163
9.91207424273e-163
9.91207424279e-163
9.91207424284e-163
9.9120742429e-163
9.91207424296e-163
9.91207424302e-163
9.91207424307e-163
9.91207424313e-163
9.91207424319e-163
9.91207424324e-163
9.9120742433e-163
9.91207424335e-163
9.91207424341e-163
9.91207424346e-163
9.91207424352e-163
9.91207424357e-163
9.91207424363e-163
9.9120742437e-163
9.91207424492e-163
9.91207433926e-163
9.9120819036e-163
9.91262610165e-163
9.95372901384e-163
1.06300946631e-162
2.32064649204e-14
1.17171946548e-08
8.61436500741e-06
2.01310569792e-05
2.60522049901e-05
2.84064804196e-05
2.92554988215e-05
2.95288013081e-05
2.96483779552e-05
2.97362592772e-05
2.9825725164e-05
2.99155559007e-05
3.00066669811e-05
3.00959792963e-05
3.01891511171e-05
3.02825153556e-05
3.03743977274e-05
3.04605497936e-05
3.05458108179e-05
3.06262766608e-05
3.07000961812e-05
3.07661283784e-05
3.08195209221e-05
3.0866686355e-05
3.09026716771e-05
3.09271989156e-05
3.0952591188e-05
9.91207423414e-163
9.91207423417e-163
9.9120742342e-163
9.91207423422e-163
9.91207423425e-163
9.91207423428e-163
9.9120742343e-163
9.91207423433e-163
9.91207423435e-163
9.91207423438e-163
9.9120742344e-163
9.91207423443e-163
9.91207423445e-163
9.91207423448e-163
9.9120742345e-163
9.91207423452e-163
9.91207423455e-163
9.91207423457e-163
9.91207423459e-163
9.91207423462e-163
9.91207423464e-163
9.91207423466e-163
9.91207423469e-163
9.91207423471e-163
9.91207423473e-163
9.91207423476e-163
9.91207423478e-163
9.9120742348e-163
9.91207423483e-163
9.91207423485e-163
9.91207423487e-163
9.9120742349e-163
9.91207423492e-163
9.91207423494e-163
9.91207423497e-163
9.91207423499e-163
9.9120742351e-163
9.91207424185e-163
9.91207479217e-163
9.91211855517e-163
9.91567280113e-163
1.00416069839e-162
1.12561355854e-62
3.22186592043e-10
1.01914176284e-06
1.46745042254e-05
2.36127002973e-05
2.77510798575e-05
2.91872335288e-05
2.96583622123e-05
2.98060246209e-05
2.98872520445e-05
2.9963915314e-05
3.00423491394e-05
3.01229322549e-05
3.02063373363e-05
3.02926042941e-05
3.03768562355e-05
3.04643697214e-05
3.05499477014e-05
3.06327306415e-05
3.07114287327e-05
3.07849063938e-05
3.08524556311e-05
3.09091226081e-05
3.09611763154e-05
3.10041800167e-05
3.10372857137e-05
3.10596655916e-05
3.10792950765e-05
9.91207423224e-163
9.91207423226e-163
9.91207423227e-163
9.91207423229e-163
9.9120742323e-163
9.91207423232e-163
9.91207423233e-163
9.91207423235e-163
9.91207423236e-163
9.91207423237e-163
9.91207423239e-163
9.9120742324e-163
9.91207423242e-163
9.91207423243e-163
9.91207423244e-163
9.91207423246e-163
9.91207423247e-163
9.91207423249e-163
9.9120742325e-163
9.91207423251e-163
9.91207423253e-163
9.91207423254e-163
9.91207423255e-163
9.91207423257e-163
9.91207423258e-163
9.91207423259e-163
9.91207423261e-163
9.91207423262e-163
9.91207423263e-163
9.91207423265e-163
9.91207423266e-163
9.91207423268e-163
9.91207423269e-163
9.9120742327e-163
9.91207423272e-163
9.91207423273e-163
9.91207423297e-163
9.91207425212e-163
9.91207586481e-163
9.91219893099e-163
9.92220833489e-163
1.01784577703e-162
8.39418364191e-30
3.5490931984e-09
4.2746619168e-06
1.74727628419e-05
2.50922287846e-05
2.83089566506e-05
2.94230936768e-05
2.97680173789e-05
2.98665872745e-05
2.99369485988e-05
3.00089626245e-05
3.00834925677e-05
3.01600023854e-05
3.0239689888e-05
3.03217998952e-05
3.04060602605e-05
3.04863614868e-05
3.05677851934e-05
3.06461019141e-05
3.07201026063e-05
3.07892668284e-05
3.08527129522e-05
3.0905673846e-05
3.09543136703e-05
3.09944288927e-05
3.10251738315e-05
3.10457942162e-05
3.10627463746e-05
9.91207423144e-163
9.91207423145e-163
9.91207423146e-163
9.91207423147e-163
9.91207423148e-163
9.91207423149e-163
9.9120742315e-163
9.91207423151e-163
9.91207423152e-163
9.91207423153e-163
9.91207423154e-163
9.91207423155e-163
9.91207423156e-163
9.91207423157e-163
9.91207423158e-163
9.91207423159e-163
9.9120742316e-163
9.91207423161e-163
9.91207423162e-163
9.91207423163e-163
9.91207423164e-163
9.91207423165e-163
9.91207423166e-163
9.91207423167e-163
9.91207423168e-163
9.91207423169e-163
9.9120742317e-163
9.91207423171e-163
9.91207423172e-163
9.91207423172e-163
9.91207423173e-163
9.91207423174e-163
9.91207423175e-163
9.91207423176e-163
9.91207423177e-163
9.91207423179e-163
9.91207423215e-163
9.91207426195e-163
9.91207676492e-163
9.91226786855e-163
9.92787012916e-163
1.02800088746e-162
2.00090805728e-20
5.52007678374e-09
5.88236180147e-06
1.869825427e-05
2.55863249325e-05
2.8416519167e-05
2.94384226676e-05
2.97257306572e-05
2.98198263452e-05
2.98904235745e-05
2.99622537308e-05
3.00364912837e-05
3.01128707491e-05
3.01926041643e-05
3.02751334996e-05
3.03584851945e-05
3.04375440569e-05
3.05174030615e-05
3.05943931199e-05
3.06677749212e-05
3.07361604188e-05
3.07982947343e-05
3.08498967647e-05
3.08971954263e-05
3.09361114143e-05
3.09658452218e-05
3.09857044424e-05
3.10017153961e-05
9.912074231e-163
9.91207423101e-163
9.91207423102e-163
9.91207423102e-163
9.91207423103e-163
9.91207423104e-163
9.91207423105e-163
9.91207423106e-163
9.91207423106e-163
9.91207423107e-163
9.91207423108e-163
9.91207423109e-163
9.9120742311e-163
9.9120742311e-163
9.91207423111e-163
9.91207423112e-163
9.91207423113e-163
9.91207423113e-163
9.91207423114e-163
9.91207423115e-163
9.91207423116e-163
9.91207423116e-163
9.91207423117e-163
9.91207423118e-163
9.91207423119e-163
9.91207423119e-163
9.9120742312e-163
9.91207423121e-163
9.91207423122e-163
9.91207423122e-163
9.91207423123e-163
9.91207423124e-163
9.91207423125e-163
9.91207423125e-163
9.91207423126e-163
9.91207423127e-163
9.91207423169e-163
9.91207426636e-163
9.91207718609e-163
9.91230039056e-163
9.93057648867e-163
1.03244257533e-162
2.47065390411e-18
6.32627570361e-09
6.38800254953e-06
1.89117490001e-05
2.56314663595e-05
2.84399302481e-05
2.9354883629e-05
2.96147487065e-05
2.97138962903e-05
2.97851818894e-05
2.98596745412e-05
2.99349777358e-05
3.00129568671e-05
3.00935243333e-05
3.01769664907e-05
3.02580252037e-05
3.03406747269e-05
3.04209524349e-05
3.04980826216e-05
3.05716243718e-05
3.06402222389e-05
3.07022322118e-05
3.07537175404e-05
3.08008952962e-05
3.08400437307e-05
3.08702905253e-05
3.0890563205e-05
3.09067829413e-05
9.91207423072e-163
9.91207423073e-163
9.91207423074e-163
9.91207423074e-163
9.91207423075e-163
9.91207423076e-163
9.91207423076e-163
9.91207423077e-163
9.91207423078e-163
9.91207423078e-163
9.91207423079e-163
9.9120742308e-163
9.9120742308e-163
9.91207423081e-163
9.91207423081e-163
9.91207423082e-163
9.91207423083e-163
9.91207423083e-163
9.91207423084e-163
9.91207423085e-163
9.91207423085e-163
9.91207423086e-163
9.91207423086e-163
9.91207423087e-163
9.91207423088e-163
9.91207423088e-163
9.91207423089e-163
9.91207423089e-163
9.9120742309e-163
9.91207423091e-163
9.91207423091e-163
9.91207423092e-163
9.91207423093e-163
9.91207423093e-163
9.91207423094e-163
9.91207423095e-163
9.91207423137e-163
9.91207426653e-163
9.91207722704e-163
9.91230310321e-163
9.93075774159e-163
1.03286165438e-162
3.37363187552e-18
6.3873484345e-09
6.41859637756e-06
1.88205742081e-05
2.56038851018e-05
2.82369904026e-05
2.91967197862e-05
2.9467206226e-05
2.95643587146e-05
2.96382157089e-05
2.97140449608e-05
2.97911327379e-05
2.98704988789e-05
2.99526180162e-05
3.00378291971e-05
3.01202279524e-05
3.02047760261e-05
3.02863148812e-05
3.03646707297e-05
3.04394674257e-05
3.05092279318e-05
3.05691516002e-05
3.06247649023e-05
3.0672459867e-05
3.07118754421e-05
3.07421544885e-05
3.07626769959e-05
3.07792263095e-05
9.91207423053e-163
9.91207423054e-163
9.91207423054e-163
9.91207423055e-163
9.91207423056e-163
9.91207423056e-163
9.91207423057e-163
9.91207423057e-163
9.91207423058e-163
9.91207423058e-163
9.91207423059e-163
9.91207423059e-163
9.9120742306e-163
9.91207423061e-163
9.91207423061e-163
9.91207423062e-163
9.91207423062e-163
9.91207423063e-163
9.91207423063e-163
9.91207423064e-163
9.91207423064e-163
9.91207423065e-163
9.91207423065e-163
9.91207423066e-163
9.91207423066e-163
9.91207423067e-163
9.91207423067e-163
9.91207423068e-163
9.91207423068e-163
9.91207423069e-163
9.9120742307e-163
9.9120742307e-163
9.91207423071e-163
9.91207423071e-163
9.91207423072e-163
9.91207423073e-163
9.91207423112e-163
9.91207426408e-163
9.91207704403e-163
9.91228980584e-163
9.92977843735e-163
1.03131228885e-162
8.82586647391e-19
6.0704237323e-09
6.13970579941e-06
1.86171371242e-05
2.52663929821e-05
2.8089593848e-05
2.89887301956e-05
2.92734349908e-05
2.93748919081e-05
2.94504546762e-05
2.95302559887e-05
2.96114258091e-05
2.96939062161e-05
2.97785145325e-05
2.98653857255e-05
2.994946599e-05
3.00358647983e-05
3.01193828773e-05
3.02001829615e-05
3.02768047159e-05
3.03482042093e-05
3.04093890248e-05
3.04659567351e-05
3.05140948161e-05
3.05536778443e-05
3.05844399815e-05
3.06055672451e-05
3.06228720613e-05
9.91207423039e-163
9.9120742304e-163
9.9120742304e-163
9.91207423041e-163
9.91207423041e-163
9.91207423042e-163
9.91207423042e-163
9.91207423043e-163
9.91207423043e-163
9.91207423044e-163
9.91207423044e-163
9.91207423045e-163
9.91207423045e-163
9.91207423046e-163
9.91207423046e-163
9.91207423047e-163
9.91207423047e-163
9.91207423048e-163
9.91207423048e-163
9.91207423049e-163
9.91207423049e-163
9.91207423049e-163
9.9120742305e-163
9.9120742305e-163
9.91207423051e-163
9.91207423051e-163
9.91207423052e-163
9.91207423052e-163
9.91207423053e-163
9.91207423053e-163
9.91207423054e-163
9.91207423054e-163
9.91207423055e-163
9.91207423055e-163
9.91207423056e-163
9.91207423056e-163
9.91207423092e-163
9.91207426083e-163
9.91207679313e-163
9.91227135711e-163
9.92819244069e-163
1.02864460715e-162
2.30541249773e-20
5.52812979452e-09
5.71417987999e-06
1.81672495316e-05
2.49999134078e-05
2.77735315288e-05
2.87657094218e-05
2.90463442464e-05
2.91496578871e-05
2.92293111242e-05
2.93129100481e-05
2.93973036066e-05
2.94832448981e-05
2.95712777813e-05
2.96612163413e-05
2.97479758364e-05
2.98366036912e-05
2.99225689864e-05
3.0005689972e-05
3.00844032404e-05
3.01543283573e-05
3.0220516617e-05
3.02782922425e-05
3.0327214956e-05
3.0367441552e-05
3.0398723033e-05
3.04204977077e-05
3.0438449681e-05
9.91207423029e-163
9.91207423029e-163
9.9120742303e-163
9.9120742303e-163
9.91207423031e-163
9.91207423031e-163
9.91207423032e-163
9.91207423032e-163
9.91207423032e-163
9.91207423033e-163
9.91207423033e-163
9.91207423034e-163
9.91207423034e-163
9.91207423034e-163
9.91207423035e-163
9.91207423035e-163
9.91207423036e-163
9.91207423036e-163
9.91207423037e-163
9.91207423037e-163
9.91207423037e-163
9.91207423038e-163
9.91207423038e-163
9.91207423039e-163
9.91207423039e-163
9.91207423039e-163
9.9120742304e-163
9.9120742304e-163
9.91207423041e-163
9.91207423041e-163
9.91207423042e-163
9.91207423042e-163
9.91207423042e-163
9.91207423043e-163
9.91207423043e-163
9.91207423044e-163
9.91207423075e-163
9.91207425705e-163
9.9120764836e-163
9.91224700479e-163
9.92613027026e-163
1.02541297127e-162
8.45842555592e-21
4.92079625849e-09
5.21810473257e-06
1.77197002639e-05
2.45639989027e-05
2.74922640328e-05
2.84861098545e-05
2.87767296273e-05
2.88872001289e-05
2.89749024463e-05
2.90600219245e-05
2.91490054421e-05
2.92393557299e-05
2.93309570544e-05
2.94240822199e-05
2.95143301057e-05
2.96067954398e-05
2.96962346013e-05
2.97820901271e-05
2.98632434082e-05
2.99352637674e-05
3.00032580366e-05
3.00628362132e-05
3.01133493701e-05
3.01545685531e-05
3.01865456432e-05
3.0208622901e-05
3.02262851969e-05
9.91207423021e-163
9.91207423021e-163
9.91207423021e-163
9.91207423022e-163
9.91207423022e-163
9.91207423023e-163
9.91207423023e-163
9.91207423023e-163
9.91207423024e-163
9.91207423024e-163
9.91207423025e-163
9.91207423025e-163
9.91207423025e-163
9.91207423026e-163
9.91207423026e-163
9.91207423026e-163
9.91207423027e-163
9.91207423027e-163
9.91207423028e-163
9.91207423028e-163
9.91207423028e-163
9.91207423029e-163
9.91207423029e-163
9.91207423029e-163
9.9120742303e-163
9.9120742303e-163
9.91207423031e-163
9.91207423031e-163
9.91207423031e-163
9.91207423032e-163
9.91207423032e-163
9.91207423032e-163
9.91207423033e-163
9.91207423033e-163
9.91207423034e-163
9.91207423034e-163
9.91207423061e-163
9.91207425315e-163
9.91207616181e-163
9.91222259111e-163
9.92410047692e-163
1.02204318936e-162
2.18430518888e-29
4.28057780232e-09
4.60942048622e-06
1.71825488655e-05
2.42176842533e-05
2.70996461995e-05
2.81607528135e-05
2.84803090438e-05
2.85982079833e-05
2.86876494185e-05
2.87757561739e-05
2.8868891447e-05
2.89635599528e-05
2.90600337118e-05
2.91573754286e-05
2.92519766381e-05
2.93475929791e-05
2.9440377492e-05
2.95291207377e-05
2.96098618776e-05
2.96880544814e-05
2.97584849549e-05
2.98201605507e-05
2.98725014124e-05
2.99148960893e-05
2.99473399564e-05
2.99695115974e-05
2.99868017405e-05
9.91207423014e-163
9.91207423014e-163
9.91207423015e-163
9.91207423015e-163
9.91207423015e-163
9.91207423016e-163
9.91207423016e-163
9.91207423016e-163
9.91207423017e-163
9.91207423017e-163
9.91207423018e-163
9.91207423018e-163
9.91207423018e-163
9.91207423019e-163
9.91207423019e-163
9.91207423019e-163
9.9120742302e-163
9.9120742302e-163
9.9120742302e-163
9.91207423021e-163
9.91207423021e-163
9.91207423021e-163
9.91207423022e-163
9.91207423022e-163
9.91207423022e-163
9.91207423023e-163
9.91207423023e-163
9.91207423023e-163
9.91207423024e-163
9.91207423024e-163
9.91207423024e-163
9.91207423025e-163
9.91207423025e-163
9.91207423026e-163
9.91207423026e-163
9.91207423027e-163
9.9120742305e-163
9.91207425003e-163
9.91207590294e-163
9.91220234377e-163
9.92237299256e-163
1.01876365753e-162
1.00044595715e-29
3.64608525985e-09
3.99299797854e-06
1.65512152022e-05
2.37244476123e-05
2.66923596741e-05
2.78072586362e-05
2.81470582181e-05
2.82741042519e-05
2.83700546061e-05
2.84631773693e-05
2.85610319278e-05
2.86609130009e-05
2.87612753346e-05
2.88593305024e-05
2.89608625429e-05
2.90602516215e-05
2.91567144413e-05
2.92490427327e-05
2.93324604958e-05
2.94130132547e-05
2.94853591125e-05
2.95488414427e-05
2.96029747391e-05
2.96472725325e-05
2.9681299086e-05
2.97010083406e-05
2.97222463106e-05
9.91207423008e-163
9.91207423009e-163
9.91207423009e-163
9.91207423009e-163
9.9120742301e-163
9.9120742301e-163
9.9120742301e-163
9.91207423011e-163
9.91207423011e-163
9.91207423011e-163
9.91207423012e-163
9.91207423012e-163
9.91207423012e-163
9.91207423013e-163
9.91207423013e-163
9.91207423013e-163
9.91207423014e-163
9.91207423014e-163
9.91207423014e-163
9.91207423015e-163
9.91207423015e-163
9.91207423015e-163
9.91207423016e-163
9.91207423016e-163
9.91207423016e-163
9.91207423017e-163
9.91207423017e-163
9.91207423017e-163
9.91207423018e-163
9.91207423018e-163
9.91207423018e-163
9.91207423019e-163
9.91207423019e-163
9.91207423019e-163
9.9120742302e-163
9.9120742302e-163
9.9120742304e-163
9.91207424698e-163
9.91207565381e-163
9.9121839171e-163
9.92083611876e-163
1.01565744447e-162
3.21747739444e-39
2.974148707e-09
3.3880062255e-06
1.58774013589e-05
2.31799747807e-05
2.63461491397e-05
2.74019033661e-05
2.77746581996e-05
2.79138844453e-05
2.80191414098e-05
2.8119489975e-05
2.82231470833e-05
2.8327487688e-05
2.84326814078e-05
2.85350895557e-05
2.86404691357e-05
2.87442289196e-05
2.88449065599e-05
2.89378119878e-05
2.90279177835e-05
2.91109050235e-05
2.91856943001e-05
2.92511507599e-05
2.93071655844e-05
2.93495993043e-05
2.93848893217e-05
2.94089082788e-05
2.94268852975e-05
9.91207423004e-163
9.91207423004e-163
9.91207423004e-163
9.91207423005e-163
9.91207423005e-163
9.91207423005e-163
9.91207423006e-163
9.91207423006e-163
9.91207423006e-163
9.91207423006e-163
9.91207423007e-163
9.91207423007e-163
9.91207423007e-163
9.91207423008e-163
9.91207423008e-163
9.91207423008e-163
9.91207423009e-163
9.91207423009e-163
9.91207423009e-163
9.91207423009e-163
9.9120742301e-163
9.9120742301e-163
9.9120742301e-163
9.91207423011e-163
9.91207423011e-163
9.91207423011e-163
9.91207423012e-163
9.91207423012e-163
9.91207423012e-163
9.91207423013e-163
9.91207423013e-163
9.91207423013e-163
9.91207423014e-163
9.91207423014e-163
9.91207423014e-163
9.91207423015e-163
9.91207423032e-163
9.91207424416e-163
9.91207542053e-163
9.91216723604e-163
9.91949636446e-163
1.01277502999e-162
2.04714006832e-39
2.35828243029e-09
2.73702455344e-06
1.52145806268e-05
2.25901855827e-05
2.58395804852e-05
2.69876273695e-05
2.73828450622e-05
2.75243653573e-05
2.76337258084e-05
2.77390820252e-05
2.78497071688e-05
2.79609122066e-05
2.80725769158e-05
2.81806352138e-05
2.82912691885e-05
2.83996413834e-05
2.85045087357e-05
2.86013751646e-05
2.86954393827e-05
2.87817998101e-05
2.88594387274e-05
2.89239846856e-05
2.89819380318e-05
2.90293211837e-05
2.90654246444e-05
2.90900599064e-05
2.91082204222e-05
9.91207423e-163
9.91207423e-163
9.91207423e-163
9.91207423001e-163
9.91207423001e-163
9.91207423001e-163
9.91207423001e-163
9.91207423002e-163
9.91207423002e-163
9.91207423002e-163
9.91207423003e-163
9.91207423003e-163
9.91207423003e-163
9.91207423003e-163
9.91207423004e-163
9.91207423004e-163
9.91207423004e-163
9.91207423005e-163
9.91207423005e-163
9.91207423005e-163
9.91207423005e-163
9.91207423006e-163
9.91207423006e-163
9.91207423006e-163
9.91207423007e-163
9.91207423007e-163
9.91207423007e-163
9.91207423008e-163
9.91207423008e-163
9.91207423008e-163
9.91207423008e-163
9.91207423009e-163
9.91207423009e-163
9.91207423009e-163
9.9120742301e-163
9.9120742301e-163
9.91207423024e-163
9.91207424179e-163
9.91207521579e-163
9.91215170137e-163
9.91823989282e-163
1.01016539065e-162
1.06030745089e-39
1.67590972706e-09
2.02882473774e-06
1.45407695246e-05
2.19937685447e-05
2.5309572738e-05
2.6529127179e-05
2.69491111819e-05
2.71056875425e-05
2.72218914815e-05
2.73335562642e-05
2.74495001559e-05
2.75662737834e-05
2.76806033043e-05
2.77979239047e-05
2.79142187564e-05
2.80274730274e-05
2.81335474152e-05
2.82378573696e-05
2.8335595342e-05
2.84254813045e-05
2.85036388536e-05
2.85746914576e-05
2.86347217921e-05
2.86831782625e-05
2.871996147e-05
2.87447982892e-05
2.87626036208e-05
9.91207422996e-163
9.91207422997e-163
9.91207422997e-163
9.91207422997e-163
9.91207422997e-163
9.91207422998e-163
9.91207422998e-163
9.91207422998e-163
9.91207422999e-163
9.91207422999e-163
9.91207422999e-163
9.91207422999e-163
9.91207423e-163
9.91207423e-163
9.91207423e-163
9.91207423e-163
9.91207423001e-163
9.91207423001e-163
9.91207423001e-163
9.91207423002e-163
9.91207423002e-163
9.91207423002e-163
9.91207423002e-163
9.91207423003e-163
9.91207423003e-163
9.91207423003e-163
9.91207423004e-163
9.91207423004e-163
9.91207423004e-163
9.91207423004e-163
9.91207423005e-163
9.91207423005e-163
9.91207423005e-163
9.91207423006e-163
9.91207423006e-163
9.91207423006e-163
9.91207423019e-163
9.91207423999e-163
9.91207505724e-163
9.91213973546e-163
9.91736374726e-163
1.00813235845e-162
2.36091411575e-40
1.12174829468e-09
1.47222955843e-06
1.37427287637e-05
2.13998122985e-05
2.47963660882e-05
2.60561259994e-05
2.64811842854e-05
2.66478577651e-05
2.67733785138e-05
2.68934796733e-05
2.70178053277e-05
2.71419482088e-05
2.72635408398e-05
2.73870961437e-05
2.7508960019e-05
2.7623970862e-05
2.77380247225e-05
2.78463360188e-05
2.79479724611e-05
2.80386445884e-05
2.81235384911e-05
2.81975345961e-05
2.82599659871e-05
2.83101836311e-05
2.83480592125e-05
2.83704900231e-05
2.83920704091e-05
9.91207422993e-163
9.91207422994e-163
9.91207422994e-163
9.91207422994e-163
9.91207422995e-163
9.91207422995e-163
9.91207422995e-163
9.91207422995e-163
9.91207422996e-163
9.91207422996e-163
9.91207422996e-163
9.91207422996e-163
9.91207422997e-163
9.91207422997e-163
9.91207422997e-163
9.91207422997e-163
9.91207422998e-163
9.91207422998e-163
9.91207422998e-163
9.91207422998e-163
9.91207422999e-163
9.91207422999e-163
9.91207422999e-163
9.91207422999e-163
9.91207423e-163
9.91207423e-163
9.91207423e-163
9.91207423001e-163
9.91207423001e-163
9.91207423001e-163
9.91207423001e-163
9.91207423002e-163
9.91207423002e-163
9.91207423002e-163
9.91207423003e-163
9.91207423003e-163
9.91207423014e-163
9.91207423846e-163
9.91207492155e-163
9.91212920602e-163
9.91651726811e-163
1.00657118317e-162
1.34637152916e-62
6.16238949805e-10
8.96483585439e-07
1.30079057107e-05
2.07398382618e-05
2.42291858172e-05
2.5509744409e-05
2.59703768251e-05
2.61583272182e-05
2.62938577943e-05
2.64230928023e-05
2.65553587763e-05
2.66875105081e-05
2.68163071314e-05
2.6946940604e-05
2.7075635153e-05
2.719658252e-05
2.73153320682e-05
2.74282253077e-05
2.75306697234e-05
2.76284860061e-05
2.77163849848e-05
2.77935895421e-05
2.78583880422e-05
2.79073310693e-05
2.79466990806e-05
2.79734750982e-05
2.79919438733e-05
9.91207422991e-163
9.91207422991e-163
9.91207422991e-163
9.91207422992e-163
9.91207422992e-163
9.91207422992e-163
9.91207422992e-163
9.91207422993e-163
9.91207422993e-163
9.91207422993e-163
9.91207422993e-163
9.91207422994e-163
9.91207422994e-163
9.91207422994e-163
9.91207422994e-163
9.91207422995e-163
9.91207422995e-163
9.91207422995e-163
9.91207422995e-163
9.91207422996e-163
9.91207422996e-163
9.91207422996e-163
9.91207422996e-163
9.91207422997e-163
9.91207422997e-163
9.91207422997e-163
9.91207422998e-163
9.91207422998e-163
9.91207422998e-163
9.91207422998e-163
9.91207422999e-163
9.91207422999e-163
9.91207422999e-163
9.91207423e-163
9.91207423e-163
9.91207423e-163
9.91207423009e-163
9.91207423718e-163
9.91207480504e-163
9.91211983208e-163
9.91575324572e-163
1.00522410188e-162
1.11070601272e-62
2.37794435521e-10
4.42849994129e-07
1.21940568322e-05
2.00788641779e-05
2.35951232452e-05
2.49840309994e-05
2.54552301977e-05
2.56409265702e-05
2.57817964368e-05
2.5922773831e-05
2.60636921796e-05
2.62007022466e-05
2.63397607431e-05
2.64778875996e-05
2.66099500422e-05
2.6740512046e-05
2.6865370015e-05
2.69802195667e-05
2.7090767661e-05
2.71925051719e-05
2.72840945844e-05
2.73603865496e-05
2.74275456621e-05
2.7481482367e-05
2.75226773939e-05
2.75510446134e-05
2.75702837492e-05
9.91207422989e-163
9.91207422989e-163
9.91207422989e-163
9.91207422989e-163
9.9120742299e-163
9.9120742299e-163
9.9120742299e-163
9.9120742299e-163
9.91207422991e-163
9.91207422991e-163
9.91207422991e-163
9.91207422991e-163
9.91207422992e-163
9.91207422992e-163
9.91207422992e-163
9.91207422992e-163
9.91207422993e-163
9.91207422993e-163
9.91207422993e-163
9.91207422993e-163
9.91207422994e-163
9.91207422994e-163
9.91207422994e-163
9.91207422994e-163
9.91207422995e-163
9.91207422995e-163
9.91207422995e-163
9.91207422995e-163
9.91207422996e-163
9.91207422996e-163
9.91207422996e-163
9.91207422996e-163
9.91207422997e-163
9.91207422997e-163
9.91207422997e-163
9.91207422998e-163
9.91207423006e-163
9.9120742362e-163
9.91207471548e-163
9.91211202021e-163
9.91512737621e-163
1.00410367933e-162
9.5182723037e-63
5.59849309412e-11
1.64527410411e-07
1.14642459102e-05
1.9364467405e-05
2.29972657577e-05
2.43786899534e-05
2.49029349768e-05
2.50990549405e-05
2.52467439542e-05
2.53961241056e-05
2.55452242695e-05
2.56907864829e-05
2.58381536601e-05
2.59797262997e-05
2.61214489162e-05
2.62581604347e-05
2.63856038156e-05
2.6509161857e-05
2.66237928103e-05
2.67264083923e-05
2.68216194849e-05
2.69045944613e-05
2.69743619662e-05
2.70308067444e-05
2.70737862783e-05
2.70998559516e-05
2.71195623263e-05
9.91207422987e-163
9.91207422987e-163
9.91207422987e-163
9.91207422988e-163
9.91207422988e-163
9.91207422988e-163
9.91207422988e-163
9.91207422988e-163
9.91207422989e-163
9.91207422989e-163
9.91207422989e-163
9.91207422989e-163
9.9120742299e-163
9.9120742299e-163
9.9120742299e-163
9.9120742299e-163
9.9120742299e-163
9.91207422991e-163
9.91207422991e-163
9.91207422991e-163
9.91207422991e-163
9.91207422992e-163
9.91207422992e-163
9.91207422992e-163
9.91207422992e-163
9.91207422993e-163
9.91207422993e-163
9.91207422993e-163
9.91207422994e-163
9.91207422994e-163
9.91207422994e-163
9.91207422994e-163
9.91207422995e-163
9.91207422995e-163
9.91207422995e-163
9.91207422996e-163
9.91207423003e-163
9.91207423546e-163
9.91207465425e-163
9.91210679637e-163
9.91465614449e-163
1.00317890189e-162
8.0600885247e-63
1.6008015702e-11
8.41067797811e-08
1.06499144395e-05
1.86276947514e-05
2.23591891534e-05
2.37977558118e-05
2.43100239145e-05
2.45202503237e-05
2.46826815872e-05
2.48410747546e-05
2.4995656614e-05
2.51521801831e-05
2.53079458494e-05
2.54575508191e-05
2.56064025523e-05
2.57469400908e-05
2.58836933984e-05
2.60124765965e-05
2.61290633033e-05
2.62390796477e-05
2.6337515658e-05
2.64236388701e-05
2.64925133207e-05
2.65513767069e-05
2.65961439503e-05
2.66269720042e-05
2.66463029224e-05
9.91207422985e-163
9.91207422985e-163
9.91207422986e-163
9.91207422986e-163
9.91207422986e-163
9.91207422986e-163
9.91207422986e-163
9.91207422987e-163
9.91207422987e-163
9.91207422987e-163
9.91207422987e-163
9.91207422988e-163
9.91207422988e-163
9.91207422988e-163
9.91207422988e-163
9.91207422988e-163
9.91207422989e-163
9.91207422989e-163
9.91207422989e-163
9.91207422989e-163
9.9120742299e-163
9.9120742299e-163
9.9120742299e-163
9.9120742299e-163
9.91207422991e-163
9.91207422991e-163
9.91207422991e-163
9.91207422991e-163
9.91207422992e-163
9.91207422992e-163
9.91207422992e-163
9.91207422993e-163
9.91207422993e-163
9.91207422993e-163
9.91207422993e-163
9.91207422994e-163
9.91207423e-163
9.91207423478e-163
9.91207460142e-163
9.91210222358e-163
9.9142372385e-163
1.00231510536e-162
6.66600175443e-63
6.53934098312e-12
4.79436209238e-08
9.89555753747e-06
1.78965895326e-05
2.16812809431e-05
2.31598522493e-05
2.36971062762e-05
2.39209884019e-05
2.40913641104e-05
2.42592914007e-05
2.44231688929e-05
2.45885632273e-05
2.47487417402e-05
2.49095155622e-05
2.50660508794e-05
2.52133371922e-05
2.53566540985e-05
2.54875520465e-05
2.56121101692e-05
2.57262877806e-05
2.58249396579e-05
2.59145185493e-05
2.59901302584e-05
2.60511699559e-05
2.60976731586e-05
2.61262233371e-05
2.61465952752e-05
9.91207422983e-163
9.91207422984e-163
9.91207422984e-163
9.91207422984e-163
9.91207422984e-163
9.91207422985e-163
9.91207422985e-163
9.91207422985e-163
9.91207422985e-163
9.91207422985e-163
9.91207422986e-163
9.91207422986e-163
9.91207422986e-163
9.91207422986e-163
9.91207422987e-163
9.91207422987e-163
9.91207422987e-163
9.91207422987e-163
9.91207422987e-163
9.91207422988e-163
9.91207422988e-163
9.91207422988e-163
9.91207422988e-163
9.91207422989e-163
9.91207422989e-163
9.91207422989e-163
9.9120742299e-163
9.9120742299e-163
9.9120742299e-163
9.9120742299e-163
9.91207422991e-163
9.91207422991e-163
9.91207422991e-163
9.91207422991e-163
9.91207422992e-163
9.91207422992e-163
9.91207422998e-163
9.91207423422e-163
9.91207455902e-163
9.91209877514e-163
9.91384735956e-163
1.00157561833e-162
5.7316044621e-63
3.38941021973e-12
3.39766641855e-08
9.1934402951e-06
1.71424835921e-05
2.1013907485e-05
2.24649497904e-05
2.30283040571e-05
2.32801785213e-05
2.34676551383e-05
2.3647221427e-05
2.3822222714e-05
2.39976631456e-05
2.41673717939e-05
2.43369132058e-05
2.44982433678e-05
2.46560463043e-05
2.48024210222e-05
2.4942271738e-05
2.50719787919e-05
2.51864258504e-05
2.52924760345e-05
2.53850785715e-05
2.5459687615e-05
2.55232971476e-05
2.55720766204e-05
2.56055914891e-05
2.56265236917e-05
9.91207422982e-163
9.91207422982e-163
9.91207422982e-163
9.91207422983e-163
9.91207422983e-163
9.91207422983e-163
9.91207422983e-163
9.91207422984e-163
9.91207422984e-163
9.91207422984e-163
9.91207422984e-163
9.91207422984e-163
9.91207422985e-163
9.91207422985e-163
9.91207422985e-163
9.91207422985e-163
9.91207422986e-163
9.91207422986e-163
9.91207422986e-163
9.91207422986e-163
9.91207422986e-163
9.91207422987e-163
9.91207422987e-163
9.91207422987e-163
9.91207422988e-163
9.91207422988e-163
9.91207422988e-163
9.91207422988e-163
9.91207422989e-163
9.91207422989e-163
9.91207422989e-163
9.91207422989e-163
9.9120742299e-163
9.9120742299e-163
9.9120742299e-163
9.91207422991e-163
9.91207422996e-163
9.91207423378e-163
9.91207452689e-163
9.91209654693e-163
9.91359438384e-163
1.00089117957e-162
4.18996107734e-63
1.98041961496e-12
2.61009128272e-08
8.45556548951e-06
1.64175353513e-05
2.02350525069e-05
2.17970023527e-05
2.23715449365e-05
2.26287445184e-05
2.2825818876e-05
2.3013697006e-05
2.32003670153e-05
2.33813326253e-05
2.35628515955e-05
2.37368899614e-05
2.39088201399e-05
2.40704493176e-05
2.42267996127e-05
2.43690471749e-05
2.45037655086e-05
2.46268713404e-05
2.47328287499e-05
2.48289427113e-05
2.49103402721e-05
2.49764273684e-05
2.50232444806e-05
2.50589384707e-05
2.50806943418e-05
9.91207422981e-163
9.91207422981e-163
9.91207422981e-163
9.91207422981e-163
9.91207422982e-163
9.91207422982e-163
9.91207422982e-163
9.91207422982e-163
9.91207422982e-163
9.91207422983e-163
9.91207422983e-163
9.91207422983e-163
9.91207422983e-163
9.91207422983e-163
9.91207422984e-163
9.91207422984e-163
9.91207422984e-163
9.91207422984e-163
9.91207422985e-163
9.91207422985e-163
9.91207422985e-163
9.91207422985e-163
9.91207422986e-163
9.91207422986e-163
9.91207422986e-163
9.91207422986e-163
9.91207422987e-163
9.91207422987e-163
9.91207422987e-163
9.91207422988e-163
9.91207422988e-163
9.91207422988e-163
9.91207422988e-163
9.91207422989e-163
9.91207422989e-163