/*--------------------------------*- C++ -*----------------------------------*\
| =========                 |                                                 |
| \\      /  F ield         | foam-extend: Open Source CFD                    |
|  \\    /   O peration     | Version:     4.1                                |
|   \\  /    A nd           | Web:         http://www.foam-extend.org         |
|    \\/     M anipulation  |                                                 |
\*---------------------------------------------------------------------------*/
FoamFile
{
    version     2.0;
    format      ascii;
    class       volScalarField;
    location    "0.0001";
    object      Mach;
}
// * * * * * * * * * * * * * * * * * * * * * * * * * * * * * * * * * * * * * //

dimensions      [0 0 0 0 0 0 0];

internalField   nonuniform List<scalar> 
8400
(
56.1971337928
56.1971337929
56.1971337929
56.1971337929
56.197133793
56.197133793
56.1971337931
56.1971337931
56.1971337931
56.1971337932
56.1971337932
56.1971337932
56.1971337933
56.1971337933
56.1971337933
56.1971337934
56.1971337934
56.1971337934
56.1971337934
56.1971337935
56.1971337935
56.1971337935
56.1971337935
56.1971337936
56.1971337936
56.1971337936
56.1971337936
56.1971337937
56.1971337937
56.1971337937
56.1971337937
56.1971337937
56.1971337938
56.1971337938
56.1971337938
56.1971337938
56.1971337938
56.1971337938
56.1971337906
56.1971335352
56.19711378
56.1956863153
56.1142629733
19.1834303444
8.63423893823
3.56786297482
1.73869759563
0.810218639843
0.361188330921
0.181969148584
0.134096647297
0.125876812889
0.123942335409
0.122749397906
0.121788336075
0.120996584264
0.120331280771
0.119777618002
0.119397922938
0.119199657709
0.119151981339
0.119226397336
0.119440625142
0.119761548128
0.120145787269
0.120559884833
0.120930404158
0.121239347379
0.121464219553
0.121668788364
56.1971337942
56.1971337942
56.1971337942
56.1971337942
56.1971337943
56.1971337943
56.1971337943
56.1971337943
56.1971337943
56.1971337943
56.1971337943
56.1971337944
56.1971337944
56.1971337944
56.1971337944
56.1971337944
56.1971337944
56.1971337944
56.1971337945
56.1971337945
56.1971337945
56.1971337945
56.1971337945
56.1971337945
56.1971337945
56.1971337945
56.1971337946
56.1971337946
56.1971337946
56.1971337946
56.1971337946
56.1971337946
56.1971337946
56.1971337946
56.1971337946
56.1971337946
56.1971337946
56.1971337944
56.197133776
56.1971322582
56.1970125921
56.1884175511
41.5795103884
13.0930290407
5.45136823238
2.58262930554
1.22748677131
0.548179738596
0.249731388548
0.159831125711
0.144886503187
0.143655441984
0.144042649056
0.144792553389
0.145738063742
0.146773137562
0.147849628567
0.148983547468
0.150191569794
0.151440299471
0.152703607713
0.153925723353
0.155080006984
0.156154590717
0.157126772488
0.157942398131
0.158598147153
0.159086766034
0.159408769247
0.159574961053
56.1971337946
56.1971337947
56.1971337947
56.1971337947
56.1971337947
56.1971337947
56.1971337947
56.1971337947
56.1971337947
56.1971337947
56.1971337947
56.1971337948
56.1971337948
56.1971337948
56.1971337948
56.1971337948
56.1971337948
56.1971337948
56.1971337948
56.1971337948
56.1971337948
56.1971337948
56.1971337948
56.1971337948
56.1971337949
56.1971337949
56.1971337949
56.1971337949
56.1971337949
56.1971337949
56.1971337949
56.1971337949
56.1971337949
56.1971337949
56.1971337949
56.1971337949
56.1971337949
56.1971337943
56.1971337407
56.1971293606
56.196794378
56.1740748435
29.2502780115
10.7591520288
4.47336971226
2.16799011254
1.02051973558
0.466995535128
0.259092769067
0.213500402081
0.207491067779
0.206656895633
0.206463713224
0.20651150374
0.206709590053
0.20699110774
0.207313144114
0.207681399868
0.20812124544
0.208602276882
0.209115281374
0.209618740206
0.210089736355
0.210521710203
0.210913203573
0.211219953185
0.21145492113
0.211617079768
0.211709143171
0.211728022047
56.1971337949
56.1971337949
56.1971337949
56.1971337949
56.1971337949
56.1971337949
56.1971337949
56.1971337949
56.1971337949
56.1971337949
56.1971337949
56.1971337949
56.1971337949
56.1971337949
56.197133795
56.197133795
56.197133795
56.197133795
56.197133795
56.197133795
56.197133795
56.197133795
56.197133795
56.197133795
56.197133795
56.197133795
56.197133795
56.197133795
56.197133795
56.197133795
56.197133795
56.197133795
56.197133795
56.197133795
56.197133795
56.197133795
56.197133795
56.1971337941
56.197133711
56.1971269299
56.1966049113
56.1618512994
24.8161179593
10.0020233996
4.12986569302
2.008844054
0.95632101289
0.471575976286
0.313941849497
0.284238460358
0.279538519725
0.277816991486
0.276481021633
0.275319749483
0.274289791755
0.273340515654
0.272457907583
0.27167449362
0.271017771629
0.270442047749
0.269928272634
0.269450700389
0.269018826349
0.26864736682
0.268351214297
0.268074983853
0.26783491712
0.267630020524
0.267464633846
0.267333870431
56.197133795
56.197133795
56.197133795
56.197133795
56.197133795
56.197133795
56.197133795
56.197133795
56.197133795
56.197133795
56.197133795
56.197133795
56.197133795
56.197133795
56.197133795
56.1971337951
56.1971337951
56.1971337951
56.1971337951
56.1971337951
56.1971337951
56.1971337951
56.1971337951
56.1971337951
56.1971337951
56.1971337951
56.1971337951
56.1971337951
56.1971337951
56.1971337951
56.1971337951
56.1971337951
56.1971337951
56.1971337951
56.1971337951
56.1971337951
56.1971337951
56.197133794
56.1971336974
56.1971257838
56.19651608
56.1560698699
23.4655056157
9.75015541114
4.02127625913
1.96927241352
0.956445094076
0.512329526457
0.381875466403
0.35768650988
0.352729783697
0.350052084518
0.347646070482
0.345402687454
0.34328274325
0.341254623341
0.339318851373
0.337526733704
0.335858069627
0.334330284803
0.332916215384
0.331604758672
0.330413706164
0.329366449516
0.328478036442
0.327693278345
0.327029226628
0.326492079768
0.326094289996
0.325830171286
56.197133795
56.197133795
56.1971337951
56.1971337951
56.1971337951
56.1971337951
56.1971337951
56.1971337951
56.1971337951
56.1971337951
56.1971337951
56.1971337951
56.1971337951
56.1971337951
56.1971337951
56.1971337951
56.1971337951
56.1971337951
56.1971337951
56.1971337951
56.1971337951
56.1971337951
56.1971337951
56.1971337951
56.1971337951
56.1971337951
56.1971337951
56.1971337951
56.1971337951
56.1971337952
56.1971337952
56.1971337952
56.1971337952
56.1971337952
56.1971337952
56.1971337952
56.1971337952
56.197133794
56.1971336962
56.1971256969
56.1965108577
56.1559957374
23.4230232774
9.73856197881
4.01992307672
1.98157941
0.989450571328
0.570976399705
0.453855647341
0.431897490808
0.42630703507
0.422695535639
0.419316893076
0.416100346302
0.413025250771
0.410070780311
0.407234358844
0.40456543619
0.40203535694
0.399690033284
0.397509297253
0.395486229523
0.393640290258
0.39202020188
0.390584478926
0.38935995451
0.388340894407
0.387530295907
0.386939249542
0.38656162081
56.1971337951
56.1971337951
56.1971337951
56.1971337951
56.1971337951
56.1971337951
56.1971337951
56.1971337951
56.1971337951
56.1971337951
56.1971337951
56.1971337951
56.1971337951
56.1971337951
56.1971337951
56.1971337951
56.1971337951
56.1971337952
56.1971337952
56.1971337952
56.1971337952
56.1971337952
56.1971337952
56.1971337952
56.1971337952
56.1971337952
56.1971337952
56.1971337952
56.1971337952
56.1971337952
56.1971337952
56.1971337952
56.1971337952
56.1971337952
56.1971337952
56.1971337952
56.1971337952
56.1971337941
56.1971337026
56.1971261931
56.1965467597
56.15814869
23.9032553081
9.83091880092
4.07568562638
2.02501465877
1.04146936238
0.63756654631
0.528275325726
0.506858869578
0.500508442586
0.4959655383
0.491653468777
0.487518571385
0.483557650569
0.479754670784
0.476098271735
0.472631875114
0.469331358288
0.46624470843
0.463362917812
0.460690464236
0.458250287281
0.456105989882
0.454214809814
0.452611270757
0.451282716237
0.450229169197
0.449456492399
0.448965563653
56.1971337951
56.1971337951
56.1971337951
56.1971337951
56.1971337951
56.1971337951
56.1971337951
56.1971337952
56.1971337952
56.1971337952
56.1971337952
56.1971337952
56.1971337952
56.1971337952
56.1971337952
56.1971337952
56.1971337952
56.1971337952
56.1971337952
56.1971337952
56.1971337952
56.1971337952
56.1971337952
56.1971337952
56.1971337952
56.1971337952
56.1971337952
56.1971337952
56.1971337952
56.1971337952
56.1971337952
56.1971337952
56.1971337952
56.1971337952
56.1971337952
56.1971337952
56.1971337952
56.1971337942
56.1971337112
56.1971268824
56.1965989784
56.1614987463
24.6316799876
10.0050208044
4.17242148103
2.09200093885
1.10427109822
0.709497409315
0.604458923553
0.582727281517
0.575481956229
0.570045850786
0.564840741848
0.559835073324
0.555022766554
0.550388636664
0.54592822317
0.54169766689
0.53765802824
0.533872524132
0.530335693207
0.527062563785
0.524074542589
0.521444648286
0.519124002769
0.517156877712
0.515531152455
0.51424155397
0.51329696009
0.512700765536
56.1971337952
56.1971337952
56.1971337952
56.1971337952
56.1971337952
56.1971337952
56.1971337952
56.1971337952
56.1971337952
56.1971337952
56.1971337952
56.1971337952
56.1971337952
56.1971337952
56.1971337952
56.1971337952
56.1971337952
56.1971337952
56.1971337952
56.1971337952
56.1971337952
56.1971337952
56.1971337952
56.1971337952
56.1971337952
56.1971337952
56.1971337952
56.1971337952
56.1971337952
56.1971337952
56.1971337952
56.1971337952
56.1971337952
56.1971337952
56.1971337952
56.1971337952
56.1971337952
56.1971337944
56.1971337215
56.1971277462
56.1966683108
56.1658912819
26.056406147
10.2137131179
4.28347224204
2.16493094047
1.17570259522
0.78590290815
0.682217528466
0.659658997817
0.651446199022
0.645056016197
0.639007265904
0.633130979805
0.627464834048
0.622009657544
0.616759253779
0.611771010952
0.607007423937
0.602534857598
0.59835955769
0.594501366438
0.591018226629
0.587870554597
0.58512592783
0.582792748204
0.58086641481
0.5793443871
0.578239347099
0.577558015282
56.1971337952
56.1971337952
56.1971337952
56.1971337952
56.1971337952
56.1971337952
56.1971337952
56.1971337952
56.1971337952
56.1971337952
56.1971337952
56.1971337952
56.1971337952
56.1971337952
56.1971337952
56.1971337952
56.1971337952
56.1971337952
56.1971337952
56.1971337952
56.1971337952
56.1971337952
56.1971337952
56.1971337952
56.1971337952
56.1971337952
56.1971337952
56.1971337952
56.1971337952
56.1971337952
56.1971337952
56.1971337952
56.1971337952
56.1971337952
56.1971337952
56.1971337952
56.1971337952
56.1971337945
56.1971337323
56.1971286248
56.1967362255
56.1705524698
27.5636223322
10.4656897104
4.40619400247
2.25181157947
1.25275092088
0.865400523479
0.76149843274
0.737446889566
0.728345060228
0.72109406114
0.714173592261
0.707417199235
0.700898678338
0.694608669558
0.688570269878
0.682829069155
0.677347180747
0.672188300074
0.667383141865
0.66298128737
0.658923938636
0.655299893749
0.652134913736
0.649441620927
0.647223764791
0.64548368163
0.644224214462
0.643462439506
56.1971337952
56.1971337952
56.1971337952
56.1971337952
56.1971337952
56.1971337952
56.1971337952
56.1971337952
56.1971337952
56.1971337952
56.1971337952
56.1971337952
56.1971337952
56.1971337952
56.1971337952
56.1971337952
56.1971337952
56.1971337952
56.1971337952
56.1971337952
56.1971337952
56.1971337952
56.1971337952
56.1971337952
56.1971337952
56.1971337952
56.1971337952
56.1971337952
56.1971337952
56.1971337953
56.1971337953
56.1971337953
56.1971337953
56.1971337953
56.1971337953
56.1971337953
56.1971337953
56.1971337946
56.1971337409
56.1971293422
56.1967935543
56.1742512153
29.3398023543
10.7383168792
4.55526843777
2.34779438154
1.33578375634
0.947448588601
0.842023120054
0.816611500917
0.806361838588
0.798159593623
0.7903265355
0.78268705669
0.775307503151
0.768204444223
0.76142451285
0.754885312959
0.74867654335
0.742834745524
0.737384291035
0.732408546309
0.727830854131
0.723744800794
0.720172741445
0.717127937956
0.714613049025
0.712634150389
0.711248984917
0.710334426939
56.1971337952
56.1971337952
56.1971337952
56.1971337952
56.1971337952
56.1971337952
56.1971337952
56.1971337952
56.1971337952
56.1971337952
56.1971337952
56.1971337952
56.1971337952
56.1971337952
56.1971337952
56.1971337952
56.1971337952
56.1971337952
56.1971337952
56.1971337952
56.1971337952
56.1971337953
56.1971337953
56.1971337953
56.1971337953
56.1971337953
56.1971337953
56.1971337953
56.1971337953
56.1971337953
56.1971337953
56.1971337953
56.1971337953
56.1971337953
56.1971337953
56.1971337953
56.1971337953
56.1971337947
56.1971337493
56.1971300077
56.1968444237
56.177653684
31.1444796589
11.0664879732
4.71847617007
2.44439502573
1.42261821422
1.03171520049
0.924166317778
0.897034125692
0.885576169918
0.876354143942
0.867583103247
0.85905014792
0.850812416572
0.842869692776
0.835284423798
0.827980608645
0.821044382919
0.814512445329
0.808469847044
0.802853943723
0.79775062654
0.793189134153
0.789204323523
0.785800613891
0.783036160612
0.780819760742
0.779215449108
0.778261937742
56.1971337952
56.1971337952
56.1971337952
56.1971337952
56.1971337952
56.1971337952
56.1971337952
56.1971337952
56.1971337952
56.1971337952
56.1971337952
56.1971337952
56.1971337952
56.1971337952
56.1971337952
56.1971337953
56.1971337953
56.1971337953
56.1971337953
56.1971337953
56.1971337953
56.1971337953
56.1971337953
56.1971337953
56.1971337953
56.1971337953
56.1971337953
56.1971337953
56.1971337953
56.1971337953
56.1971337953
56.1971337953
56.1971337953
56.1971337953
56.1971337953
56.1971337953
56.1971337953
56.1971337948
56.1971337571
56.1971306258
56.1968887198
56.1807937031
32.9801611498
11.3892949763
4.9023083947
2.55597961624
1.51387592409
1.11846879467
1.00782888059
0.978468734401
0.965949282085
0.95577833085
0.946069112
0.936597156952
0.927450220782
0.918634012834
0.91022748018
0.902135507847
0.894461033455
0.887234441776
0.880549519093
0.874334902811
0.868687070823
0.863637480587
0.859212769284
0.855499601075
0.852384800576
0.849943426353
0.848180226486
0.847150391301
56.1971337952
56.1971337952
56.1971337952
56.1971337952
56.1971337952
56.1971337952
56.1971337952
56.1971337952
56.1971337952
56.1971337952
56.1971337953
56.1971337953
56.1971337953
56.1971337953
56.1971337953
56.1971337953
56.1971337953
56.1971337953
56.1971337953
56.1971337953
56.1971337953
56.1971337953
56.1971337953
56.1971337953
56.1971337953
56.1971337953
56.1971337953
56.1971337953
56.1971337953
56.1971337953
56.1971337953
56.1971337953
56.1971337953
56.1971337953
56.1971337953
56.1971337953
56.1971337953
56.1971337949
56.1971337638
56.1971311772
56.196931002
56.1834231044
34.8978769484
11.7664657392
5.10264748919
2.6686049152
1.60752050089
1.208764472
1.09243622242
1.06122321668
1.04747980154
1.03629662122
1.02563991804
1.01524290322
1.0051966642
0.995557577718
0.986246019279
0.97735087333
0.968923281043
0.961053587662
0.953670917992
0.9468673385
0.940670821587
0.935169365029
0.930298833824
0.926153143396
0.922750820343
0.920089171401
0.918174766589
0.917080893396
56.1971337952
56.1971337952
56.1971337952
56.1971337952
56.1971337952
56.1971337953
56.1971337953
56.1971337953
56.1971337953
56.1971337953
56.1971337953
56.1971337953
56.1971337953
56.1971337953
56.1971337953
56.1971337953
56.1971337953
56.1971337953
56.1971337953
56.1971337953
56.1971337953
56.1971337953
56.1971337953
56.1971337953
56.1971337953
56.1971337953
56.1971337953
56.1971337953
56.1971337953
56.1971337953
56.1971337953
56.1971337953
56.1971337953
56.1971337953
56.1971337953
56.1971337953
56.1971337953
56.197133795
56.1971337689
56.1971316045
56.1969621409
56.1854765015
37.3899438286
12.1338818982
5.30638670394
2.78309899737
1.70542444487
1.29864317911
1.17886887015
1.14559550638
1.13046492552
1.1182074145
1.10651423897
1.09512684614
1.08412359121
1.07358137813
1.06340690074
1.05369667448
1.04456737661
1.03593683655
1.02790010069
1.02049164398
1.01379090623
1.00772442088
1.00241980408
0.997903143182
0.994200341421
0.991306747621
0.989217154342
0.988035425481
56.1971337952
56.1971337953
56.1971337953
56.1971337953
56.1971337953
56.1971337953
56.1971337953
56.1971337953
56.1971337953
56.1971337953
56.1971337953
56.1971337953
56.1971337953
56.1971337953
56.1971337953
56.1971337953
56.1971337953
56.1971337953
56.1971337953
56.1971337953
56.1971337953
56.1971337953
56.1971337953
56.1971337953
56.1971337953
56.1971337953
56.1971337953
56.1971337953
56.1971337953
56.1971337953
56.1971337953
56.1971337953
56.1971337953
56.1971337953
56.1971337953
56.1971337953
56.1971337953
56.197133795
56.1971337733
56.1971319752
56.1969905567
56.1870783041
39.6280653641
12.5324192159
5.55737405718
2.90430575128
1.80714126044
1.39104648681
1.26785105844
1.23132764412
1.21479852612
1.20140675564
1.1886740227
1.17627600876
1.16431265558
1.1528418933
1.14177238729
1.13121637921
1.12130422436
1.11195801317
1.10325537929
1.09528820849
1.0879709486
1.08140894476
1.07565827287
1.07076229355
1.06680645683
1.06366699437
1.06139403031
1.0601263376
56.1971337953
56.1971337953
56.1971337953
56.1971337953
56.1971337953
56.1971337953
56.1971337953
56.1971337953
56.1971337953
56.1971337953
56.1971337953
56.1971337953
56.1971337953
56.1971337953
56.1971337953
56.1971337953
56.1971337953
56.1971337953
56.1971337953
56.1971337953
56.1971337953
56.1971337953
56.1971337953
56.1971337953
56.1971337953
56.1971337953
56.1971337953
56.1971337953
56.1971337953
56.1971337953
56.1971337953
56.1971337953
56.1971337953
56.1971337953
56.1971337953
56.1971337953
56.1971337953
56.1971337951
56.1971337769
56.1971323006
56.1970159204
56.1886298432
41.9200666168
13.5017195019
5.9679222393
3.02754294382
1.90949236014
1.48642242421
1.35671822133
1.31842133172
1.30049346768
1.28598755867
1.27215735438
1.25872534441
1.24584060608
1.23336154719
1.22138959258
1.21004258404
1.19925573654
1.18914987282
1.17982482689
1.17116073165
1.16327130999
1.15619994589
1.15008314994
1.14481026246
1.14047434988
1.13707411893
1.13459946565
1.1332282872
56.1971337953
56.1971337953
56.1971337953
56.1971337953
56.1971337953
56.1971337953
56.1971337953
56.1971337953
56.1971337953
56.1971337953
56.1971337953
56.1971337953
56.1971337953
56.1971337953
56.1971337953
56.1971337953
56.1971337953
56.1971337953
56.1971337953
56.1971337953
56.1971337953
56.1971337953
56.1971337953
56.1971337953
56.1971337953
56.1971337953
56.1971337953
56.1971337953
56.1971337953
56.1971337953
56.1971337953
56.1971337953
56.1971337953
56.1971337953
56.1971337953
56.1971337953
56.1971337953
56.1971337951
56.1971337796
56.197132557
56.1970373052
56.1898767191
44.0662569835
14.6214258494
6.42575537225
3.15579631644
2.0158734785
1.58224713583
1.44791327162
1.40672148002
1.38754461641
1.3719746157
1.35698487895
1.34248916735
1.32857292347
1.31512649517
1.3023073332
1.2900364437
1.27843828225
1.2676428886
1.25753646453
1.24824040401
1.23977520788
1.23225697204
1.22560872464
1.21994514022
1.21528081474
1.21161605596
1.20902144905
1.20755208491
56.1971337953
56.1971337953
56.1971337953
56.1971337953
56.1971337953
56.1971337953
56.1971337953
56.1971337953
56.1971337953
56.1971337953
56.1971337953
56.1971337953
56.1971337953
56.1971337953
56.1971337953
56.1971337953
56.1971337953
56.1971337953
56.1971337953
56.1971337953
56.1971337953
56.1971337953
56.1971337953
56.1971337953
56.1971337953
56.1971337953
56.1971337953
56.1971337953
56.1971337953
56.1971337953
56.1971337953
56.1971337953
56.1971337953
56.1971337953
56.1971337953
56.1971337953
56.1971337953
56.1971337951
56.1971337816
56.1971327313
56.1970522232
56.1908269095
45.493738545
15.3414188371
6.76813494221
3.27967976182
2.12434336271
1.67978800251
1.54075063555
1.49723977169
1.47617775213
1.45935026395
1.44323880127
1.42775076223
1.41271561473
1.39824988545
1.3844849221
1.37132037104
1.35895805889
1.34730521219
1.33648762669
1.32661841434
1.31754940215
1.30945134164
1.30235011844
1.29637234961
1.29136491721
1.28742538974
1.28455136828
1.28301059902
56.1971337953
56.1971337953
56.1971337953
56.1971337953
56.1971337953
56.1971337953
56.1971337953
56.1971337953
56.1971337953
56.1971337953
56.1971337953
56.1971337953
56.1971337953
56.1971337953
56.1971337953
56.1971337953
56.1971337953
56.1971337953
56.1971337953
56.1971337953
56.1971337953
56.1971337953
56.1971337953
56.1971337953
56.1971337953
56.1971337953
56.1971337953
56.1971337953
56.1971337953
56.1971337953
56.1971337953
56.1971337953
56.1971337953
56.1971337953
56.1971337953
56.1971337953
56.1971337953
56.1971337952
56.1971337834
56.1971328755
56.197065599
56.191747586
47.3476629024
15.882798614
7.10362981627
3.41524487147
2.23057173682
1.78013147316
1.63522097875
1.58888042001
1.56632309927
1.5482614831
1.53096553325
1.51432484008
1.49823504923
1.48283324105
1.4680256697
1.45393104357
1.44071328594
1.42826085552
1.41679415757
1.40618355508
1.39653844024
1.38799488019
1.38041289271
1.37394034437
1.36859961224
1.3643913005
1.3613949283
1.3597546235
56.1971337953
56.1971337953
56.1971337953
56.1971337953
56.1971337953
56.1971337953
56.1971337953
56.1971337953
56.1971337953
56.1971337953
56.1971337953
56.1971337953
56.1971337953
56.1971337953
56.1971337953
56.1971337953
56.1971337953
56.1971337953
56.1971337953
56.1971337953
56.1971337953
56.1971337953
56.1971337953
56.1971337953
56.1971337953
56.1971337953
56.1971337953
56.1971337953
56.1971337953
56.1971337953
56.1971337953
56.1971337953
56.1971337953
56.1971337953
56.1971337953
56.1971337953
56.1971337953
56.1971337952
56.1971337848
56.1971329934
56.1970762924
56.1925518685
49.0697508358
16.3402953406
7.37266497547
3.54749423879
2.34257848797
1.8802616826
1.73254847421
1.68259679461
1.65829397283
1.63888482438
1.62029811111
1.60245532344
1.58522021376
1.5687647434
1.55294321687
1.53798975676
1.52380520038
1.51062207953
1.49833912594
1.4870519387
1.47690141419
1.46772791148
1.45968494378
1.45290092398
1.44720199973
1.442708794
1.43940562902
1.43766888218
56.1971337953
56.1971337953
56.1971337953
56.1971337953
56.1971337953
56.1971337953
56.1971337953
56.1971337953
56.1971337953
56.1971337953
56.1971337953
56.1971337953
56.1971337953
56.1971337953
56.1971337953
56.1971337953
56.1971337953
56.1971337953
56.1971337953
56.1971337953
56.1971337953
56.1971337953
56.1971337953
56.1971337953
56.1971337953
56.1971337953
56.1971337953
56.1971337953
56.1971337953
56.1971337953
56.1971337953
56.1971337953
56.1971337953
56.1971337953
56.1971337953
56.1971337953
56.1971337953
56.1971337952
56.1971337859
56.1971330821
56.1970827698
56.1933447579
51.033069815
16.7717269775
7.63538509369
3.6802375129
2.45413044206
1.9844230673
1.82989637831
1.77741834679
1.75171732535
1.73087987557
1.71111609661
1.69202677727
1.6737465695
1.65614577361
1.63940347028
1.62342573712
1.60843201495
1.59433901427
1.58127809755
1.56939127362
1.55853530323
1.54890669823
1.54038706662
1.53307738989
1.52702585196
1.52223101248
1.51877334191
1.51692723403
56.1971337953
56.1971337953
56.1971337953
56.1971337953
56.1971337953
56.1971337953
56.1971337953
56.1971337953
56.1971337953
56.1971337953
56.1971337953
56.1971337953
56.1971337953
56.1971337953
56.1971337953
56.1971337953
56.1971337953
56.1971337953
56.1971337953
56.1971337953
56.1971337953
56.1971337953
56.1971337953
56.1971337953
56.1971337953
56.1971337953
56.1971337953
56.1971337953
56.1971337953
56.1971337953
56.1971337953
56.1971337953
56.1971337953
56.1971337953
56.1971337953
56.1971337953
56.1971337953
56.1971337952
56.1971337869
56.1971331553
56.1970878518
56.1937915499
51.9210290754
17.1726291973
7.88425542359
3.80800703484
2.56283355513
2.08692134994
1.93002256507
1.87448884118
1.84688919482
1.82469809838
1.80363284628
1.78325451754
1.76380084141
1.74516606011
1.72727176552
1.71039986604
1.69441002259
1.67956993167
1.66573992443
1.65304649958
1.64164877858
1.63138271652
1.62236257601
1.6147427955
1.60831299188
1.60319309632
1.59939861642
1.59744104735
56.1971337953
56.1971337953
56.1971337953
56.1971337953
56.1971337953
56.1971337953
56.1971337953
56.1971337953
56.1971337953
56.1971337953
56.1971337953
56.1971337953
56.1971337953
56.1971337953
56.1971337953
56.1971337953
56.1971337953
56.1971337953
56.1971337953
56.1971337953
56.1971337953
56.1971337953
56.1971337953
56.1971337953
56.1971337953
56.1971337953
56.1971337953
56.1971337953
56.1971337953
56.1971337953
56.1971337953
56.1971337953
56.1971337953
56.1971337953
56.1971337953
56.1971337953
56.1971337953
56.1971337952
56.1971337877
56.1971332171
56.1970920045
56.194171479
52.6580899811
17.4713474885
8.10116685423
3.93732091901
2.6753036096
2.19460549733
2.03038372627
1.97330379828
1.94390751589
1.92033729073
1.89779749327
1.87624434918
1.85545617816
1.835646668
1.81680298019
1.7988357795
1.7820081435
1.76620780368
1.75156594725
1.73827226685
1.7261264597
1.71538558277
1.70586279031
1.69767582472
1.69097193799
1.68553637586
1.68147843844
1.67943001188
56.1971337953
56.1971337953
56.1971337953
56.1971337953
56.1971337953
56.1971337953
56.1971337953
56.1971337953
56.1971337953
56.1971337953
56.1971337953
56.1971337953
56.1971337953
56.1971337953
56.1971337953
56.1971337953
56.1971337953
56.1971337953
56.1971337953
56.1971337953
56.1971337953
56.1971337953
56.1971337953
56.1971337953
56.1971337953
56.1971337953
56.1971337953
56.1971337953
56.1971337953
56.1971337953
56.1971337953
56.1971337953
56.1971337953
56.1971337953
56.1971337953
56.1971337953
56.1971337953
56.1971337952
56.1971337882
56.1971332618
56.1970951813
56.1945088543
53.7543183532
17.7568333418
8.28988686637
4.05938582228
2.78857551999
2.30065712995
2.13380954834
2.07354151435
2.04286546323
2.01773935902
1.9937562512
1.97080124073
1.94883823362
1.92776113605
1.90780216595
1.88890086226
1.87107331582
1.85449120546
1.83906237469
1.82504699921
1.81223604507
1.80079895157
1.79086122697
1.78222514179
1.7750176247
1.76925352031
1.76503897781
1.76284487388
56.1971337953
56.1971337953
56.1971337953
56.1971337953
56.1971337953
56.1971337953
56.1971337953
56.1971337953
56.1971337953
56.1971337953
56.1971337953
56.1971337953
56.1971337953
56.1971337953
56.1971337953
56.1971337953
56.1971337953
56.1971337953
56.1971337953
56.1971337953
56.1971337953
56.1971337953
56.1971337953
56.1971337953
56.1971337953
56.1971337953
56.1971337953
56.1971337953
56.1971337953
56.1971337953
56.1971337953
56.1971337953
56.1971337953
56.1971337953
56.1971337953
56.1971337953
56.1971337953
56.1971337952
56.1971337887
56.1971333014
56.1970981522
56.1946967648
54.6086183488
17.9924891013
8.47658074043
4.18082320113
2.89996821797
2.40878921302
2.23822667118
2.17606602656
2.1433552363
2.1167170015
2.09141505698
2.067176081
2.04382946087
2.0216252928
2.00054326798
1.98048866976
1.96174516381
1.94420168987
1.92808073184
1.91322353202
1.89986728721
1.88783384333
1.87724857182
1.86825616374
1.86065135669
1.85454745099
1.84992846205
1.84775405524
56.1971337953
56.1971337953
56.1971337953
56.1971337953
56.1971337953
56.1971337953
56.1971337953
56.1971337953
56.1971337953
56.1971337953
56.1971337953
56.1971337953
56.1971337953
56.1971337953
56.1971337953
56.1971337953
56.1971337953
56.1971337953
56.1971337953
56.1971337953
56.1971337953
56.1971337953
56.1971337953
56.1971337953
56.1971337953
56.1971337953
56.1971337953
56.1971337953
56.1971337953
56.1971337953
56.1971337953
56.1971337953
56.1971337953
56.1971337953
56.1971337953
56.1971337953
56.1971337953
56.1971337952
56.197133789
56.1971333219
56.1970996523
56.1947970976
55.4057825305
18.1550723906
8.62171925745
4.29624684757
3.01158614463
2.51825417354
2.34491252557
2.28075133147
2.24609972954
2.21764144938
2.19085668811
2.16519990137
2.1406779401
2.11714210506
2.09490695781
2.07389613675
2.05408181986
2.03573074574
2.01865924074
2.00314091992
1.98900930206
1.9764734353
1.96535002061
1.95576160353
1.94784270295
1.94136560154
1.93643275783
1.9339984609
56.1971337953
56.1971337953
56.1971337953
56.1971337953
56.1971337953
56.1971337953
56.1971337953
56.1971337953
56.1971337953
56.1971337953
56.1971337953
56.1971337953
56.1971337953
56.1971337953
56.1971337953
56.1971337953
56.1971337953
56.1971337953
56.1971337953
56.1971337953
56.1971337953
56.1971337953
56.1971337953
56.1971337953
56.1971337953
56.1971337953
56.1971337953
56.1971337953
56.1971337953
56.1971337953
56.1971337953
56.1971337953
56.1971337953
56.1971337953
56.1971337953
56.1971337953
56.1971337953
56.1971337952
56.1971337891
56.1971333338
56.197100859
56.1948993011
55.9530504921
18.325560956
8.76625671616
4.40344877387
3.1192911962
2.62885656436
2.45373438843
2.38656023716
2.35045511537
2.32081869435
2.29243023366
2.26518740375
2.23920942592
2.21448405981
2.19106714011
2.16886418874
2.14818358014
2.12891374895
2.11101334654
2.0947566287
2.07993494079
2.06680238351
2.05512566097
2.04504132289
2.03671176597
2.02984925781
2.02456776591
2.02198923391
56.1971337953
56.1971337953
56.1971337953
56.1971337953
56.1971337953
56.1971337953
56.1971337953
56.1971337953
56.1971337953
56.1971337953
56.1971337953
56.1971337953
56.1971337953
56.1971337953
56.1971337953
56.1971337953
56.1971337953
56.1971337953
56.1971337953
56.1971337953
56.1971337953
56.1971337953
56.1971337953
56.1971337953
56.1971337953
56.1971337953
56.1971337953
56.1971337953
56.1971337953
56.1971337953
56.1971337953
56.1971337953
56.1971337953
56.1971337953
56.1971337953
56.1971337953
56.1971337953
56.1971337952
56.1971337891
56.1971333359
56.1971012997
56.194945538
56.0921170428
18.4477353755
8.88120747925
4.51339692681
3.2293632838
2.73837555437
2.56438956797
2.49498067481
2.45719216176
2.42575399251
2.39577715197
2.36707803512
2.33969820871
2.31366887004
2.28891476958
2.26572136629
2.24400851949
2.22366559461
2.20503546823
2.1878772066
2.17249866163
2.15863284195
2.14655039624
2.13598845713
2.1272057161
2.11992843893
2.11428484741
2.11153031847
56.1971337953
56.1971337953
56.1971337953
56.1971337953
56.1971337953
56.1971337953
56.1971337953
56.1971337953
56.1971337953
56.1971337953
56.1971337953
56.1971337953
56.1971337953
56.1971337953
56.1971337953
56.1971337953
56.1971337953
56.1971337953
56.1971337953
56.1971337953
56.1971337953
56.1971337953
56.1971337953
56.1971337953
56.1971337953
56.1971337953
56.1971337953
56.1971337953
56.1971337953
56.1971337953
56.1971337953
56.1971337953
56.1971337953
56.1971337953
56.1971337953
56.1971337953
56.1971337953
56.1971337952
56.1971337889
56.1971333257
56.1971008207