/*--------------------------------*- C++ -*----------------------------------*\
| =========                 |                                                 |
| \\      /  F ield         | foam-extend: Open Source CFD                    |
|  \\    /   O peration     | Version:     4.1                                |
|   \\  /    A nd           | Web:         http://www.foam-extend.org         |
|    \\/     M anipulation  |                                                 |
\*---------------------------------------------------------------------------*/
FoamFile
{
    version     2.0;
    format      ascii;
    class       volScalarField;
    location    "0.0001";
    object      mu;
}
// * * * * * * * * * * * * * * * * * * * * * * * * * * * * * * * * * * * * * //

dimensions      [1 -1 -1 0 0 0 0];

internalField   nonuniform List<scalar> 
8400
(
1.68899961488e-05
1.68899961488e-05
1.68899961488e-05
1.68899961488e-05
1.68899961488e-05
1.68899961488e-05
1.68899961488e-05
1.68899961488e-05
1.68899961488e-05
1.68899961488e-05
1.68899961488e-05
1.68899961488e-05
1.68899961488e-05
1.68899961488e-05
1.68899961488e-05
1.68899961488e-05
1.68899961488e-05
1.68899961488e-05
1.68899961488e-05
1.68899961488e-05
1.68899961488e-05
1.68899961488e-05
1.68899961488e-05
1.68899961488e-05
1.68899961488e-05
1.68899961488e-05
1.68899961488e-05
1.68899961488e-05
1.68899961488e-05
1.68899961488e-05
1.68899961488e-05
1.68899961488e-05
1.68899961488e-05
1.68899961488e-05
1.68899961488e-05
1.68899961489e-05
1.68899961489e-05
1.68899961489e-05
1.68899961496e-05
1.68899962095e-05
1.68900005197e-05
1.68903260681e-05
1.68956831032e-05
8.04690354847e-05
0.000166935880486
0.00014586068785
7.56206431516e-05
5.37986725689e-05
4.74888333814e-05
4.56550980097e-05
4.50151469523e-05
4.46326309672e-05
4.43149098854e-05
4.3988030757e-05
4.36604002309e-05
4.33303132512e-05
4.30084324151e-05
4.26764503074e-05
4.23462725376e-05
4.20234231998e-05
4.17213801973e-05
4.14244812837e-05
4.11457884226e-05
4.08914783431e-05
4.06651791134e-05
4.04822278453e-05
4.03225405272e-05
4.02008922194e-05
4.01185356608e-05
4.00596244614e-05
1.68899961488e-05
1.68899961488e-05
1.68899961488e-05
1.68899961488e-05
1.68899961488e-05
1.68899961488e-05
1.68899961488e-05
1.68899961488e-05
1.68899961488e-05
1.68899961488e-05
1.68899961488e-05
1.68899961488e-05
1.68899961488e-05
1.68899961488e-05
1.68899961488e-05
1.68899961488e-05
1.68899961488e-05
1.68899961488e-05
1.68899961488e-05
1.68899961488e-05
1.68899961488e-05
1.68899961488e-05
1.68899961488e-05
1.68899961488e-05
1.68899961488e-05
1.68899961488e-05
1.68899961488e-05
1.68899961488e-05
1.68899961488e-05
1.68899961488e-05
1.68899961488e-05
1.68899961488e-05
1.68899961488e-05
1.68899961488e-05
1.68899961488e-05
1.68899961488e-05
1.68899961488e-05
1.68899961488e-05
1.68899961532e-05
1.68899964998e-05
1.68900246506e-05
1.68910220901e-05
2.75367499426e-05
0.000125488909656
0.000220449267166
0.000102666242324
6.1770379397e-05
4.87080142065e-05
4.54661600838e-05
4.45412207407e-05
4.41693515978e-05
4.39004540479e-05
4.36338109157e-05
4.33599147363e-05
4.30788202807e-05
4.27895703676e-05
4.24924013712e-05
4.22033586724e-05
4.19043185723e-05
4.16116267918e-05
4.13284126112e-05
4.10600763893e-05
4.08101609747e-05
4.05819535559e-05
4.03908246793e-05
4.02173764018e-05
4.00753316873e-05
3.99669848682e-05
3.98939992008e-05
3.98466005051e-05
1.68899961488e-05
1.68899961488e-05
1.68899961488e-05
1.68899961488e-05
1.68899961488e-05
1.68899961488e-05
1.68899961488e-05
1.68899961488e-05
1.68899961488e-05
1.68899961488e-05
1.68899961488e-05
1.68899961488e-05
1.68899961488e-05
1.68899961488e-05
1.68899961488e-05
1.68899961488e-05
1.68899961488e-05
1.68899961488e-05
1.68899961488e-05
1.68899961488e-05
1.68899961488e-05
1.68899961488e-05
1.68899961488e-05
1.68899961488e-05
1.68899961488e-05
1.68899961488e-05
1.68899961488e-05
1.68899961488e-05
1.68899961488e-05
1.68899961488e-05
1.68899961488e-05
1.68899961488e-05
1.68899961488e-05
1.68899961488e-05
1.68899961488e-05
1.68899961488e-05
1.68899961488e-05
1.68899961489e-05
1.68899961617e-05
1.68899971364e-05
1.68900764141e-05
1.68921059927e-05
4.600922359e-05
0.000148269226393
0.000188936496873
8.77008911105e-05
5.65878373806e-05
4.72917683544e-05
4.49286024812e-05
4.42392730017e-05
4.39768755816e-05
4.37375494582e-05
4.34862675109e-05
4.32257294624e-05
4.29584198431e-05
4.26817271449e-05
4.23992971673e-05
4.21117902244e-05
4.18376446862e-05
4.15591611765e-05
4.12905876738e-05
4.10372694879e-05
4.08013484268e-05
4.05865546203e-05
4.04076821631e-05
4.02453355454e-05
4.01125305188e-05
4.00116438588e-05
3.99439460979e-05
3.99012883221e-05
1.68899961488e-05
1.68899961488e-05
1.68899961488e-05
1.68899961488e-05
1.68899961488e-05
1.68899961488e-05
1.68899961488e-05
1.68899961488e-05
1.68899961488e-05
1.68899961488e-05
1.68899961488e-05
1.68899961488e-05
1.68899961488e-05
1.68899961488e-05
1.68899961488e-05
1.68899961488e-05
1.68899961488e-05
1.68899961488e-05
1.68899961488e-05
1.68899961488e-05
1.68899961488e-05
1.68899961488e-05
1.68899961488e-05
1.68899961488e-05
1.68899961488e-05
1.68899961488e-05
1.68899961488e-05
1.68899961488e-05
1.68899961488e-05
1.68899961488e-05
1.68899961488e-05
1.68899961488e-05
1.68899961488e-05
1.68899961488e-05
1.68899961488e-05
1.68899961488e-05
1.68899961488e-05
1.6889996149e-05
1.68899961688e-05
1.68899976824e-05
1.68901212574e-05
1.68929103103e-05
5.72449950139e-05
0.00015436567377
0.000171292157477
8.18019752502e-05
5.50178416959e-05
4.71579504976e-05
4.49802390968e-05
4.44041540328e-05
4.41364220267e-05
4.3893096656e-05
4.36402116761e-05
4.33781529584e-05
4.3109673742e-05
4.28327644691e-05
4.25489627735e-05
4.22635206915e-05
4.19914033445e-05
4.17161112212e-05
4.14509399613e-05
4.11997746942e-05
4.09668325401e-05
4.07558415272e-05
4.05805726149e-05
4.04214214495e-05
4.02914937167e-05
4.01930152198e-05
4.01270420404e-05
4.00859222838e-05
1.68899961488e-05
1.68899961488e-05
1.68899961488e-05
1.68899961488e-05
1.68899961488e-05
1.68899961488e-05
1.68899961488e-05
1.68899961488e-05
1.68899961488e-05
1.68899961488e-05
1.68899961488e-05
1.68899961488e-05
1.68899961488e-05
1.68899961488e-05
1.68899961488e-05
1.68899961488e-05
1.68899961488e-05
1.68899961488e-05
1.68899961488e-05
1.68899961488e-05
1.68899961488e-05
1.68899961488e-05
1.68899961488e-05
1.68899961488e-05
1.68899961488e-05
1.68899961488e-05
1.68899961488e-05
1.68899961488e-05
1.68899961488e-05
1.68899961488e-05
1.68899961488e-05
1.68899961488e-05
1.68899961488e-05
1.68899961488e-05
1.68899961488e-05
1.68899961488e-05
1.68899961488e-05
1.6889996149e-05
1.68899961722e-05
1.688999794e-05
1.68901426926e-05
1.68932621064e-05
6.17825765588e-05
0.000156468507262
0.000166193721193
8.0920895376e-05
5.4990023743e-05
4.71698053503e-05
4.53063436325e-05
4.47892915886e-05
4.44945831429e-05
4.42466257411e-05
4.39831792392e-05
4.37156140457e-05
4.34396544067e-05
4.31575109736e-05
4.28689942224e-05
4.25893777521e-05
4.23034380661e-05
4.20246540541e-05
4.17573971463e-05
4.15041012634e-05
4.12689453798e-05
4.10569389763e-05
4.08805457658e-05
4.07208442524e-05
4.05900859609e-05
4.04901835084e-05
4.04231730797e-05
4.03812526943e-05
1.68899961487e-05
1.68899961487e-05
1.68899961487e-05
1.68899961487e-05
1.68899961487e-05
1.68899961487e-05
1.68899961487e-05
1.68899961487e-05
1.68899961487e-05
1.68899961487e-05
1.68899961487e-05
1.68899961487e-05
1.68899961487e-05
1.68899961487e-05
1.68899961487e-05
1.68899961487e-05
1.68899961487e-05
1.68899961487e-05
1.68899961487e-05
1.68899961487e-05
1.68899961487e-05
1.68899961487e-05
1.68899961487e-05
1.68899961487e-05
1.68899961487e-05
1.68899961487e-05
1.68899961487e-05
1.68899961487e-05
1.68899961487e-05
1.68899961487e-05
1.68899961487e-05
1.68899961487e-05
1.68899961487e-05
1.68899961487e-05
1.68899961487e-05
1.68899961488e-05
1.68899961488e-05
1.6889996149e-05
1.68899961725e-05
1.68899979615e-05
1.68901441282e-05
1.68932952988e-05
6.23724389108e-05
0.000156623642518
0.00016591930877
8.14221257341e-05
5.51275496293e-05
4.79171353701e-05
4.58632274519e-05
4.52957875573e-05
4.50021513913e-05
4.47433787818e-05
4.44738297657e-05
4.4198472774e-05
4.39153227994e-05
4.3624873463e-05
4.33269517512e-05
4.30397151488e-05
4.27451403487e-05
4.24596590764e-05
4.21857739071e-05
4.19261920788e-05
4.16859109625e-05
4.14794295858e-05
4.128862637e-05
4.11255618912e-05
4.09920656707e-05
4.08907371768e-05
4.08222922812e-05
4.07791756608e-05
1.68899961487e-05
1.68899961487e-05
1.68899961487e-05
1.68899961487e-05
1.68899961487e-05
1.68899961487e-05
1.68899961487e-05
1.68899961487e-05
1.68899961487e-05
1.68899961487e-05
1.68899961487e-05
1.68899961487e-05
1.68899961487e-05
1.68899961487e-05
1.68899961487e-05
1.68899961487e-05
1.68899961487e-05
1.68899961487e-05
1.68899961487e-05
1.68899961487e-05
1.68899961487e-05
1.68899961487e-05
1.68899961487e-05
1.68899961487e-05
1.68899961487e-05
1.68899961487e-05
1.68899961487e-05
1.68899961487e-05
1.68899961487e-05
1.68899961487e-05
1.68899961487e-05
1.68899961487e-05
1.68899961487e-05
1.68899961487e-05
1.68899961487e-05
1.68899961487e-05
1.68899961488e-05
1.6889996149e-05
1.6889996171e-05
1.68899978562e-05
1.68901363718e-05
1.6893172584e-05
6.07500802593e-05
0.000155827634349
0.000168781640985
8.24124717211e-05
5.64353137131e-05
4.8431813887e-05
4.65835568487e-05
4.59637033071e-05
4.56519461527e-05
4.53838921653e-05
4.50977373131e-05
4.48056703772e-05
4.45086793755e-05
4.42059399881e-05
4.38982137451e-05
4.36014491766e-05
4.32971471956e-05
4.30025900672e-05
4.27188719403e-05
4.24515525674e-05
4.22038860115e-05
4.1991188046e-05
4.17947138837e-05
4.16276160728e-05
4.14915318066e-05
4.13871874306e-05
4.13165883459e-05
4.12714456064e-05
1.68899961487e-05
1.68899961487e-05
1.68899961487e-05
1.68899961487e-05
1.68899961487e-05
1.68899961487e-05
1.68899961487e-05
1.68899961487e-05
1.68899961487e-05
1.68899961487e-05
1.68899961487e-05
1.68899961487e-05
1.68899961487e-05
1.68899961487e-05
1.68899961487e-05
1.68899961487e-05
1.68899961487e-05
1.68899961487e-05
1.68899961487e-05
1.68899961487e-05
1.68899961487e-05
1.68899961487e-05
1.68899961487e-05
1.68899961487e-05
1.68899961487e-05
1.68899961487e-05
1.68899961487e-05
1.68899961487e-05
1.68899961487e-05
1.68899961487e-05
1.68899961487e-05
1.68899961487e-05
1.68899961487e-05
1.68899961487e-05
1.68899961487e-05
1.68899961487e-05
1.68899961487e-05
1.6889996149e-05
1.6889996169e-05
1.68899977101e-05
1.68901238102e-05
1.6892961295e-05
5.80007334335e-05
0.000154398386228
0.000173232127624
8.46532004325e-05
5.74365661833e-05
4.95458598278e-05
4.7356992625e-05
4.67533538625e-05
4.64316458146e-05
4.61445295015e-05
4.58411651996e-05
4.55343167666e-05
4.52223496504e-05
4.49043202747e-05
4.45822262669e-05
4.42721539846e-05
4.39562050929e-05
4.36497749467e-05
4.335509316e-05
4.30777834516e-05
4.28321715681e-05
4.26003443256e-05
4.23972969145e-05
4.22251498531e-05
4.20846415269e-05
4.19772102776e-05
4.19036886887e-05
4.18562215093e-05
1.68899961487e-05
1.68899961487e-05
1.68899961487e-05
1.68899961487e-05
1.68899961487e-05
1.68899961487e-05
1.68899961487e-05
1.68899961487e-05
1.68899961487e-05
1.68899961487e-05
1.68899961487e-05
1.68899961487e-05
1.68899961487e-05
1.68899961487e-05
1.68899961487e-05
1.68899961487e-05
1.68899961487e-05
1.68899961487e-05
1.68899961487e-05
1.68899961487e-05
1.68899961487e-05
1.68899961487e-05
1.68899961487e-05
1.68899961487e-05
1.68899961487e-05
1.68899961487e-05
1.68899961487e-05
1.68899961487e-05
1.68899961487e-05
1.68899961487e-05
1.68899961487e-05
1.68899961487e-05
1.68899961487e-05
1.68899961487e-05
1.68899961487e-05
1.68899961487e-05
1.68899961487e-05
1.6889996149e-05
1.68899961666e-05
1.68899975172e-05
1.68901074771e-05
1.6892705339e-05
5.44317732106e-05
0.00015268853177
0.000178573580104
8.68964212937e-05
5.91207372387e-05
5.05310872457e-05
4.83350456927e-05
4.77018032973e-05
4.73511890081e-05
4.70302037228e-05
4.67163427064e-05
4.63891807131e-05
4.60574521862e-05
4.57224973684e-05
4.53843910052e-05
4.50578405414e-05
4.47243914482e-05
4.44019240496e-05
4.40934885771e-05
4.38041501714e-05
4.35480033504e-05
4.33072097406e-05
4.30956526977e-05
4.29162297868e-05
4.27705007413e-05
4.26588772503e-05
4.25826499704e-05
4.25341794668e-05
1.68899961487e-05
1.68899961487e-05
1.68899961487e-05
1.68899961487e-05
1.68899961487e-05
1.68899961487e-05
1.68899961487e-05
1.68899961487e-05
1.68899961487e-05
1.68899961487e-05
1.68899961487e-05
1.68899961487e-05
1.68899961487e-05
1.68899961487e-05
1.68899961487e-05
1.68899961487e-05
1.68899961487e-05
1.68899961487e-05
1.68899961487e-05
1.68899961487e-05
1.68899961487e-05
1.68899961487e-05
1.68899961487e-05
1.68899961487e-05
1.68899961487e-05
1.68899961487e-05
1.68899961487e-05
1.68899961487e-05
1.68899961487e-05
1.68899961487e-05
1.68899961487e-05
1.68899961487e-05
1.68899961487e-05
1.68899961487e-05
1.68899961487e-05
1.68899961487e-05
1.68899961487e-05
1.68899961489e-05
1.6889996164e-05
1.68899973238e-05
1.68900914005e-05
1.68924384413e-05
5.04543797627e-05
0.00015074178314
0.000185401866294
8.96638500021e-05
6.04458288043e-05
5.1937496825e-05
4.94868771901e-05
4.87548420257e-05
4.83752262931e-05
4.80436549662e-05
4.77137537772e-05
4.73659185785e-05
4.70131055634e-05
4.66555543147e-05
4.62974939553e-05
4.59504404789e-05
4.5600713381e-05
4.52620192214e-05
4.49390244209e-05
4.46462916218e-05
4.43649572972e-05
4.41122286834e-05
4.38909199554e-05
4.37029784612e-05
4.3551128037e-05
4.34352344508e-05
4.3356522008e-05
4.33069570846e-05
1.68899961487e-05
1.68899961487e-05
1.68899961487e-05
1.68899961487e-05
1.68899961487e-05
1.68899961487e-05
1.68899961487e-05
1.68899961487e-05
1.68899961487e-05
1.68899961487e-05
1.68899961487e-05
1.68899961487e-05
1.68899961487e-05
1.68899961487e-05
1.68899961487e-05
1.68899961487e-05
1.68899961487e-05
1.68899961487e-05
1.68899961487e-05
1.68899961487e-05
1.68899961487e-05
1.68899961487e-05
1.68899961487e-05
1.68899961487e-05
1.68899961487e-05
1.68899961487e-05
1.68899961487e-05
1.68899961487e-05
1.68899961487e-05
1.68899961487e-05
1.68899961487e-05
1.68899961487e-05
1.68899961487e-05
1.68899961487e-05
1.68899961487e-05
1.68899961487e-05
1.68899961487e-05
1.68899961489e-05
1.6889996162e-05
1.68899971634e-05
1.68900777183e-05
1.68921786918e-05
4.65442691165e-05
0.000148628138143
0.000192561762089
9.30272695942e-05
6.24044931643e-05
5.34184263939e-05
5.07560261887e-05
4.99556468245e-05
4.95401328423e-05
4.91779026491e-05
4.88228546676e-05
4.84519638157e-05
4.80748986712e-05
4.76975809684e-05
4.73300188852e-05
4.69524752775e-05
4.65838388566e-05
4.6227268497e-05
4.5887060963e-05
4.55800724818e-05
4.52856690423e-05
4.50215852887e-05
4.47901419526e-05
4.45931427563e-05
4.44325585365e-05
4.43100601298e-05
4.4238675611e-05
4.41742564536e-05
1.68899961487e-05
1.68899961487e-05
1.68899961487e-05
1.68899961487e-05
1.68899961487e-05
1.68899961487e-05
1.68899961487e-05
1.68899961487e-05
1.68899961487e-05
1.68899961487e-05
1.68899961487e-05
1.68899961487e-05
1.68899961487e-05
1.68899961487e-05
1.68899961487e-05
1.68899961487e-05
1.68899961487e-05
1.68899961487e-05
1.68899961487e-05
1.68899961487e-05
1.68899961487e-05
1.68899961487e-05
1.68899961487e-05
1.68899961487e-05
1.68899961487e-05
1.68899961487e-05
1.68899961487e-05
1.68899961487e-05
1.68899961487e-05
1.68899961487e-05
1.68899961487e-05
1.68899961487e-05
1.68899961487e-05
1.68899961487e-05
1.68899961487e-05
1.68899961487e-05
1.68899961487e-05
1.68899961489e-05
1.688999616e-05
1.68899970175e-05
1.68900655457e-05
1.68919326696e-05
4.28771448996e-05
0.000146132764191
0.000199722006803
9.67410051403e-05
6.46145544744e-05
5.46794357635e-05
5.22375255716e-05
5.1320314242e-05
5.0853578925e-05
5.04491434354e-05
5.00610835748e-05
4.96620955401e-05
4.92616200446e-05
4.88591260788e-05
4.84685979463e-05
4.80697714354e-05
4.767915048e-05
4.73019269794e-05
4.69544350355e-05
4.66187727037e-05
4.63102434085e-05
4.60326787932e-05
4.5790076415e-05
4.55834081118e-05
4.54269738568e-05
4.52980150465e-05
4.52103642331e-05
4.51557020277e-05
1.68899961487e-05
1.68899961487e-05
1.68899961487e-05
1.68899961487e-05
1.68899961487e-05
1.68899961487e-05
1.68899961487e-05
1.68899961487e-05
1.68899961487e-05
1.68899961487e-05
1.68899961487e-05
1.68899961487e-05
1.68899961487e-05
1.68899961487e-05
1.68899961487e-05
1.68899961487e-05
1.68899961487e-05
1.68899961487e-05
1.68899961487e-05
1.68899961487e-05
1.68899961487e-05
1.68899961487e-05
1.68899961487e-05
1.68899961487e-05
1.68899961487e-05
1.68899961487e-05
1.68899961487e-05
1.68899961487e-05
1.68899961487e-05
1.68899961487e-05
1.68899961487e-05
1.68899961487e-05
1.68899961487e-05
1.68899961487e-05
1.68899961487e-05
1.68899961487e-05
1.68899961487e-05
1.68899961489e-05
1.68899961582e-05
1.68899968854e-05
1.68900549345e-05
1.68917043731e-05
3.85978651102e-05
0.000143472048859
0.000207409772512
0.000100511323348
6.70678928556e-05
5.65873163175e-05
5.37758780512e-05
5.27785191869e-05
5.22984459065e-05
5.1870049015e-05
5.14545077423e-05
5.10211225484e-05
5.05868141061e-05
5.01521199377e-05
4.97321869823e-05
4.93063287444e-05
4.88911483909e-05
4.84917368769e-05
4.81232455065e-05
4.77674672332e-05
4.74420389765e-05
4.71500225894e-05
4.69065552304e-05
4.668923516e-05
4.65118900952e-05
4.63769415089e-05
4.62846178015e-05
4.62270522459e-05
1.68899961487e-05
1.68899961487e-05
1.68899961487e-05
1.68899961487e-05
1.68899961487e-05
1.68899961487e-05
1.68899961487e-05
1.68899961487e-05
1.68899961487e-05
1.68899961487e-05
1.68899961487e-05
1.68899961487e-05
1.68899961487e-05
1.68899961487e-05
1.68899961487e-05
1.68899961487e-05
1.68899961487e-05
1.68899961487e-05
1.68899961487e-05
1.68899961487e-05
1.68899961487e-05
1.68899961487e-05
1.68899961487e-05
1.68899961487e-05
1.68899961487e-05
1.68899961487e-05
1.68899961487e-05
1.68899961487e-05
1.68899961487e-05
1.68899961487e-05
1.68899961487e-05
1.68899961487e-05
1.68899961487e-05
1.68899961487e-05
1.68899961487e-05
1.68899961487e-05
1.68899961487e-05
1.68899961488e-05
1.68899961566e-05
1.68899967623e-05
1.68900449828e-05
1.68914976812e-05
3.51431814532e-05
0.000139772164454
0.000214812172189
0.000104488650461
6.96104249167e-05
5.86283227062e-05
5.55121088222e-05
5.4420530377e-05
5.38763591722e-05
5.34133741162e-05
5.29644052248e-05
5.25008789513e-05
5.20359920505e-05
5.15823290344e-05
5.11199206709e-05
5.06640870179e-05
5.02223085471e-05
4.98092526386e-05
4.94055381857e-05
4.90294205711e-05
4.86854327176e-05
4.83873108572e-05
4.81167789932e-05
4.78877924825e-05
4.77023044568e-05
4.75607806581e-05
4.74644811748e-05
4.74049927813e-05
1.68899961487e-05
1.68899961487e-05
1.68899961487e-05
1.68899961487e-05
1.68899961487e-05
1.68899961487e-05
1.68899961487e-05
1.68899961487e-05
1.68899961487e-05
1.68899961487e-05
1.68899961487e-05
1.68899961487e-05
1.68899961487e-05
1.68899961487e-05
1.68899961487e-05
1.68899961487e-05
1.68899961487e-05
1.68899961487e-05
1.68899961487e-05
1.68899961487e-05
1.68899961487e-05
1.68899961487e-05
1.68899961487e-05
1.68899961487e-05
1.68899961487e-05
1.68899961487e-05
1.68899961487e-05
1.68899961487e-05
1.68899961487e-05
1.68899961487e-05
1.68899961487e-05
1.68899961487e-05
1.68899961487e-05
1.68899961487e-05
1.68899961487e-05
1.68899961487e-05
1.68899961487e-05
1.68899961488e-05
1.68899961553e-05
1.68899966676e-05
1.68900380434e-05
1.68913366585e-05
3.23698488172e-05
0.000135842489636
0.000219227858866
0.000109445715007
7.22054672999e-05
6.06389435301e-05
5.73360994507e-05
5.62274040372e-05
5.56366553358e-05
5.51254188022e-05
5.46314947532e-05
5.41241588503e-05
5.36206107303e-05
5.31299048649e-05
5.26345683675e-05
5.21481785045e-05
5.16897686721e-05
5.12375701706e-05
5.08102482943e-05
5.04122161017e-05
5.00588049699e-05
4.97300698001e-05
4.94431771768e-05
4.92003884142e-05
4.90041090533e-05
4.88554076965e-05
4.87653703282e-05
4.86901391504e-05
1.68899961487e-05
1.68899961487e-05
1.68899961487e-05
1.68899961487e-05
1.68899961487e-05
1.68899961487e-05
1.68899961487e-05
1.68899961487e-05
1.68899961487e-05
1.68899961487e-05
1.68899961487e-05
1.68899961487e-05
1.68899961487e-05
1.68899961487e-05
1.68899961487e-05
1.68899961487e-05
1.68899961487e-05
1.68899961487e-05
1.68899961487e-05
1.68899961487e-05
1.68899961487e-05
1.68899961487e-05
1.68899961487e-05
1.68899961487e-05
1.68899961487e-05
1.68899961487e-05
1.68899961487e-05
1.68899961487e-05
1.68899961487e-05
1.68899961487e-05
1.68899961487e-05
1.68899961487e-05
1.68899961487e-05
1.68899961487e-05
1.68899961487e-05
1.68899961487e-05
1.68899961487e-05
1.68899961488e-05
1.68899961542e-05
1.68899965842e-05
1.6890031339e-05
1.68912130083e-05
2.9901996707e-05
0.000130581947208
0.000220883428526
0.000114197557396
7.51832339017e-05
6.29214801723e-05
5.94941760993e-05
5.82408686488e-05
5.75555211061e-05
5.69911073397e-05
5.64493823668e-05
5.58984844177e-05
5.53508081185e-05
5.48197387982e-05
5.42854974085e-05
5.37619109495e-05
5.3270862186e-05
5.27906241049e-05
5.23365940942e-05
5.19262309067e-05
5.15381937162e-05
5.11912292245e-05
5.08868795013e-05
5.06306300101e-05
5.04352242819e-05
5.02773283322e-05
5.01688730051e-05
5.01022570161e-05
1.68899961487e-05
1.68899961487e-05
1.68899961487e-05
1.68899961487e-05
1.68899961487e-05
1.68899961487e-05
1.68899961487e-05
1.68899961487e-05
1.68899961487e-05
1.68899961487e-05
1.68899961487e-05
1.68899961487e-05
1.68899961487e-05
1.68899961487e-05
1.68899961487e-05
1.68899961487e-05
1.68899961487e-05
1.68899961487e-05
1.68899961487e-05
1.68899961487e-05
1.68899961487e-05
1.68899961487e-05
1.68899961487e-05
1.68899961487e-05
1.68899961487e-05
1.68899961487e-05
1.68899961487e-05
1.68899961487e-05
1.68899961487e-05
1.68899961487e-05
1.68899961487e-05
1.68899961487e-05
1.68899961487e-05
1.68899961487e-05
1.68899961487e-05
1.68899961487e-05
1.68899961487e-05
1.68899961488e-05
1.68899961533e-05
1.68899965099e-05
1.68900252877e-05
1.68911063151e-05
2.74897686539e-05
0.000123154707127
0.000216756212779
0.000119750103992
7.82490815716e-05
6.55478635198e-05
6.1615074242e-05
6.03149533648e-05
5.96267402577e-05
5.90250749873e-05
5.84212135206e-05
5.78216891587e-05
5.72413384133e-05
5.66562196518e-05
5.60790918604e-05
5.55298070981e-05
5.49894154465e-05
5.44744037057e-05
5.40024056095e-05
5.35516297652e-05
5.31398428691e-05
5.27710793456e-05
5.24633404442e-05
5.21919651395e-05
5.1972677888e-05
5.18045020282e-05
5.16878032261e-05
5.16158176046e-05
1.68899961487e-05
1.68899961487e-05
1.68899961487e-05
1.68899961487e-05
1.68899961487e-05
1.68899961487e-05
1.68899961487e-05
1.68899961487e-05
1.68899961487e-05
1.68899961487e-05
1.68899961487e-05
1.68899961487e-05
1.68899961487e-05
1.68899961487e-05
1.68899961487e-05
1.68899961487e-05
1.68899961487e-05
1.68899961487e-05
1.68899961487e-05
1.68899961487e-05
1.68899961487e-05
1.68899961487e-05
1.68899961487e-05
1.68899961487e-05
1.68899961487e-05
1.68899961487e-05
1.68899961487e-05
1.68899961487e-05
1.68899961487e-05
1.68899961487e-05
1.68899961487e-05
1.68899961487e-05
1.68899961487e-05
1.68899961487e-05
1.68899961487e-05
1.68899961487e-05
1.68899961487e-05
1.68899961488e-05
1.68899961526e-05
1.68899964481e-05
1.68900203306e-05
1.6891017574e-05
2.58775925514e-05
0.000112880097042
0.000205194331724
0.000124953615782
8.16714268458e-05
6.80851136124e-05
6.41203592923e-05
6.25881675831e-05
6.18432438688e-05
6.11968721801e-05
6.05415867387e-05
5.98925461757e-05
5.92622223907e-05
5.86286382376e-05
5.80223773632e-05
5.74199298716e-05
5.68415475705e-05
5.63047444445e-05
5.57872521104e-05
5.53102326006e-05
5.48852984107e-05
5.44933428732e-05
5.41522068428e-05
5.38644660085e-05
5.36303667778e-05
5.34512831426e-05
5.33405900479e-05
5.32643725232e-05
1.68899961487e-05
1.68899961487e-05
1.68899961487e-05
1.68899961487e-05
1.68899961487e-05
1.68899961487e-05
1.68899961487e-05
1.68899961487e-05
1.68899961487e-05
1.68899961487e-05
1.68899961487e-05
1.68899961487e-05
1.68899961487e-05
1.68899961487e-05
1.68899961487e-05
1.68899961487e-05
1.68899961487e-05
1.68899961487e-05
1.68899961487e-05
1.68899961487e-05
1.68899961487e-05
1.68899961487e-05
1.68899961487e-05
1.68899961487e-05
1.68899961487e-05
1.68899961487e-05
1.68899961487e-05
1.68899961487e-05
1.68899961487e-05
1.68899961487e-05
1.68899961487e-05
1.68899961487e-05
1.68899961487e-05
1.68899961487e-05
1.68899961487e-05
1.68899961487e-05
1.68899961487e-05
1.68899961488e-05
1.68899961521e-05
1.68899964067e-05
1.68900165983e-05
1.68909443287e-05
2.4432992719e-05
0.000105335315455
0.000196269540112
0.000131127251253
8.53290162135e-05
7.08720859568e-05
6.65850654662e-05
6.50885161675e-05
6.42670476327e-05
6.35396514042e-05
6.28280451168e-05
6.2136801828e-05
6.14426258776e-05
6.07573229014e-05
6.01022095381e-05
5.94552123562e-05
5.88466562126e-05
5.82579905213e-05
5.77069219769e-05
5.72103083072e-05
5.67451853774e-05
5.63308679878e-05
5.59688968065e-05
5.56777238629e-05
5.54287197939e-05
5.52381008056e-05
5.51054580626e-05
5.50267603145e-05
1.68899961487e-05
1.68899961487e-05
1.68899961487e-05
1.68899961487e-05
1.68899961487e-05
1.68899961487e-05
1.68899961487e-05
1.68899961487e-05
1.68899961487e-05
1.68899961487e-05
1.68899961487e-05
1.68899961487e-05
1.68899961487e-05
1.68899961487e-05
1.68899961487e-05
1.68899961487e-05
1.68899961487e-05
1.68899961487e-05
1.68899961487e-05
1.68899961487e-05
1.68899961487e-05
1.68899961487e-05
1.68899961487e-05
1.68899961487e-05
1.68899961487e-05
1.68899961487e-05
1.68899961487e-05
1.68899961487e-05
1.68899961487e-05
1.68899961487e-05
1.68899961487e-05
1.68899961487e-05
1.68899961487e-05
1.68899961487e-05
1.68899961487e-05
1.68899961487e-05
1.68899961487e-05
1.68899961488e-05
1.68899961517e-05
1.68899963705e-05
1.68900132805e-05
1.68908759132e-05
2.30791462882e-05
0.000100603702935
0.000188669133438
0.000137188584995
8.90927952286e-05
7.3930618223e-05
6.93665738137e-05
6.77402621541e-05
6.6839581076e-05
6.60558865838e-05
6.528186544e-05
6.45300008792e-05
6.37772339981e-05
6.30526918212e-05
6.23322156579e-05
6.16362604673e-05
6.09842622226e-05
6.03540428653e-05
5.97800962845e-05
5.92371591586e-05
5.87426477617e-05
5.83163888069e-05
5.79313308969e-05
5.76060339929e-05
5.73420171354e-05
5.71391736278e-05
5.70114283773e-05
5.69247614303e-05
1.68899961487e-05
1.68899961487e-05
1.68899961487e-05
1.68899961487e-05
1.68899961487e-05
1.68899961487e-05
1.68899961487e-05
1.68899961487e-05
1.68899961487e-05
1.68899961487e-05
1.68899961487e-05
1.68899961487e-05
1.68899961487e-05
1.68899961487e-05
1.68899961487e-05
1.68899961487e-05
1.68899961487e-05
1.68899961487e-05
1.68899961487e-05
1.68899961487e-05
1.68899961487e-05
1.68899961487e-05
1.68899961487e-05
1.68899961487e-05
1.68899961487e-05
1.68899961487e-05
1.68899961487e-05
1.68899961487e-05
1.68899961487e-05
1.68899961487e-05
1.68899961487e-05
1.68899961487e-05
1.68899961487e-05
1.68899961487e-05
1.68899961487e-05
1.68899961487e-05
1.68899961487e-05
1.68899961488e-05
1.68899961513e-05
1.68899963431e-05
1.68900101925e-05
1.68908173434e-05
2.21755380177e-05
9.7408495878e-05
0.000183840162975
0.00014312625374
9.31314563563e-05
7.70335917482e-05
7.24911428443e-05
7.07171157488e-05
6.96656009482e-05
6.87788763856e-05
6.79273621415e-05
6.71028413737e-05
6.62833660451e-05
6.54959942947e-05
6.47173777241e-05
6.39812306001e-05
6.32667963763e-05
6.26067852934e-05
6.19793329988e-05
6.14006350582e-05
6.08916675268e-05
6.04230614539e-05
6.00148774767e-05
5.96848307662e-05
5.94033300508e-05
5.91857325589e-05
5.90339405395e-05
5.89408408733e-05
1.68899961487e-05
1.68899961487e-05
1.68899961487e-05
1.68899961487e-05
1.68899961487e-05
1.68899961487e-05
1.68899961487e-05
1.68899961487e-05
1.68899961487e-05
1.68899961487e-05
1.68899961487e-05
1.68899961487e-05
1.68899961487e-05
1.68899961487e-05
1.68899961487e-05
1.68899961487e-05
1.68899961487e-05
1.68899961487e-05
1.68899961487e-05
1.68899961487e-05
1.68899961487e-05
1.68899961487e-05
1.68899961487e-05
1.68899961487e-05
1.68899961487e-05
1.68899961487e-05
1.68899961487e-05
1.68899961487e-05
1.68899961487e-05
1.68899961487e-05
1.68899961487e-05
1.68899961487e-05
1.68899961487e-05
1.68899961487e-05
1.68899961487e-05
1.68899961487e-05
1.68899961487e-05
1.68899961488e-05
1.68899961511e-05
1.68899963255e-05
1.68900081889e-05
1.68907631336e-05
2.07328021773e-05
9.4926844584e-05
0.00017999220008
0.000149722759402
9.71702696502e-05
8.0801634259e-05
7.5587348593e-05
7.3723950457e-05
7.26157234977e-05
7.16547863568e-05
7.07379613599e-05
6.98347094991e-05
6.89647132849e-05
6.8100363179e-05
6.72782418481e-05
6.64738234253e-05
6.57220187919e-05
6.49998803919e-05
6.43449278604e-05
6.37285385766e-05
6.3168431944e-05
6.2687040635e-05
6.2252892871e-05
6.18848004337e-05
6.15846657887e-05
6.13690578599e-05
6.12040722938e-05
6.11041532652e-05
1.68899961487e-05
1.68899961487e-05
1.68899961487e-05
1.68899961487e-05
1.68899961487e-05
1.68899961487e-05
1.68899961487e-05
1.68899961487e-05
1.68899961487e-05
1.68899961487e-05
1.68899961487e-05
1.68899961487e-05
1.68899961487e-05
1.68899961487e-05
1.68899961487e-05
1.68899961487e-05
1.68899961487e-05
1.68899961487e-05
1.68899961487e-05
1.68899961487e-05
1.68899961487e-05
1.68899961487e-05
1.68899961487e-05
1.68899961487e-05
1.68899961487e-05
1.68899961487e-05
1.68899961487e-05
1.68899961487e-05
1.68899961487e-05
1.68899961487e-05
1.68899961487e-05
1.68899961487e-05
1.68899961487e-05
1.68899961487e-05
1.68899961487e-05
1.68899961487e-05
1.68899961487e-05
1.68899961488e-05
1.68899961509e-05
1.68899963095e-05
1.68900069778e-05
1.68907125563e-05
2.01868042777e-05
9.26986256568e-05
0.000176681788512
0.000156336770368
0.00010108031559
8.43281187574e-05
7.89573413501e-05
7.70338517639e-05
7.57892012006e-05
7.47421635785e-05
7.37462512458e-05
7.27610551455e-05
7.18150396606e-05
7.08957384648e-05
6.99934693604e-05
6.91409643599e-05
6.83178151913e-05
6.75627901118e-05
6.68454470692e-05
6.61884649555e-05
6.56089511714e-05
6.50800326354e-05
6.46177312391e-05
6.4243777126e-05
6.39239094761e-05
6.36755394121e-05
6.34982167042e-05
6.33899807689e-05
1.68899961487e-05
1.68899961487e-05
1.68899961487e-05
1.68899961487e-05
1.68899961487e-05
1.68899961487e-05
1.68899961487e-05
1.68899961487e-05
1.68899961487e-05
1.68899961487e-05
1.68899961487e-05
1.68899961487e-05
1.68899961487e-05