/*--------------------------------*- C++ -*----------------------------------*\
| =========                 |                                                 |
| \\      /  F ield         | foam-extend: Open Source CFD                    |
|  \\    /   O peration     | Version:     4.1                                |
|   \\  /    A nd           | Web:         http://www.foam-extend.org         |
|    \\/     M anipulation  |                                                 |
\*---------------------------------------------------------------------------*/
FoamFile
{
    version     2.0;
    format      ascii;
    class       volScalarField;
    location    "0.0001";
    object      N;
}
// * * * * * * * * * * * * * * * * * * * * * * * * * * * * * * * * * * * * * //

dimensions      [0 0 0 0 0 0 0];

internalField   nonuniform List<scalar> 
8400
(
7.71492889127e-105
7.71492889132e-105
7.71492889138e-105
7.71492889143e-105
7.71492889148e-105
7.71492889153e-105
7.71492889158e-105
7.71492889163e-105
7.71492889168e-105
7.71492889173e-105
7.71492889178e-105
7.71492889183e-105
7.71492889188e-105
7.71492889192e-105
7.71492889197e-105
7.71492889202e-105
7.71492889206e-105
7.71492889211e-105
7.71492889215e-105
7.7149288922e-105
7.71492889224e-105
7.71492889228e-105
7.71492889233e-105
7.71492889237e-105
7.71492889241e-105
7.71492889245e-105
7.7149288925e-105
7.71492889254e-105
7.71492889258e-105
7.71492889262e-105
7.71492889266e-105
7.71492889271e-105
7.71492889275e-105
7.71492889279e-105
7.71492889283e-105
7.71492889287e-105
7.71492889292e-105
7.71492889384e-105
7.71492896468e-105
7.71493464462e-105
7.71534327425e-105
7.74620679483e-105
8.25407896309e-105
3.97377639302e-07
0.417529679736
0.580312720392
0.340058282022
0.223509931436
0.178863824258
0.163031891096
0.157946133228
0.155707032484
0.154055771807
0.15237576223
0.150690701527
0.148983683889
0.147310374427
0.145565656714
0.143818876404
0.142102512397
0.140492179558
0.138899999778
0.137398779167
0.136022152077
0.134790918677
0.133795255194
0.132917657307
0.132247930958
0.131791542905
0.131323166091
7.71492888575e-105
7.71492888577e-105
7.71492888579e-105
7.71492888581e-105
7.71492888583e-105
7.71492888585e-105
7.71492888587e-105
7.71492888589e-105
7.71492888591e-105
7.71492888592e-105
7.71492888594e-105
7.71492888596e-105
7.71492888598e-105
7.714928886e-105
7.71492888602e-105
7.71492888603e-105
7.71492888605e-105
7.71492888607e-105
7.71492888609e-105
7.7149288861e-105
7.71492888612e-105
7.71492888614e-105
7.71492888616e-105
7.71492888618e-105
7.71492888619e-105
7.71492888621e-105
7.71492888623e-105
7.71492888624e-105
7.71492888626e-105
7.71492888628e-105
7.7149288863e-105
7.71492888631e-105
7.71492888633e-105
7.71492888635e-105
7.71492888637e-105
7.71492888639e-105
7.71492888647e-105
7.71492889154e-105
7.71492930476e-105
7.7149621657e-105
7.71763099225e-105
7.81219295966e-105
6.35113214923e-38
0.00954219175777
0.743085598611
0.451989872795
0.270832137771
0.191130869467
0.164245722861
0.15551021148
0.152765291027
0.151246149161
0.149810169231
0.148341693372
0.146833208871
0.145274330515
0.143661707059
0.142087692616
0.140454230242
0.138856760673
0.13731235748
0.135845482715
0.134475658818
0.133218700867
0.132163129702
0.13119493759
0.130395145225
0.129779182664
0.129362847608
0.129000999238
7.71492888432e-105
7.71492888433e-105
7.71492888434e-105
7.71492888435e-105
7.71492888437e-105
7.71492888438e-105
7.71492888439e-105
7.7149288844e-105
7.71492888441e-105
7.71492888442e-105
7.71492888443e-105
7.71492888444e-105
7.71492888445e-105
7.71492888446e-105
7.71492888447e-105
7.71492888448e-105
7.71492888449e-105
7.7149288845e-105
7.71492888451e-105
7.71492888452e-105
7.71492888453e-105
7.71492888454e-105
7.71492888455e-105
7.71492888456e-105
7.71492888457e-105
7.71492888459e-105
7.7149288846e-105
7.71492888461e-105
7.71492888462e-105
7.71492888463e-105
7.71492888464e-105
7.71492888465e-105
7.71492888466e-105
7.71492888467e-105
7.71492888468e-105
7.71492888469e-105
7.71492888487e-105
7.71492889924e-105
7.71493011019e-105
7.71502251862e-105
7.72253842021e-105
7.91495203036e-105
6.75231759081e-17
0.146675260352
0.674028784678
0.394103804155
0.241989167454
0.180627352595
0.15985750557
0.15346579402
0.151634113824
0.150317041598
0.1489684815
0.147573102871
0.146141803761
0.144651861427
0.143117444367
0.141543560876
0.140045448419
0.138525405427
0.13706445327
0.135684848973
0.134395535229
0.133214785698
0.132228187416
0.131323387492
0.130577447815
0.130005332594
0.129621635391
0.12930833903
7.71492888372e-105
7.71492888372e-105
7.71492888373e-105
7.71492888374e-105
7.71492888375e-105
7.71492888376e-105
7.71492888376e-105
7.71492888377e-105
7.71492888378e-105
7.71492888379e-105
7.7149288838e-105
7.7149288838e-105
7.71492888381e-105
7.71492888382e-105
7.71492888382e-105
7.71492888383e-105
7.71492888384e-105
7.71492888385e-105
7.71492888385e-105
7.71492888386e-105
7.71492888387e-105
7.71492888388e-105
7.71492888388e-105
7.71492888389e-105
7.7149288839e-105
7.7149288839e-105
7.71492888391e-105
7.71492888392e-105
7.71492888393e-105
7.71492888393e-105
7.71492888394e-105
7.71492888395e-105
7.71492888395e-105
7.71492888396e-105
7.71492888397e-105
7.71492888398e-105
7.71492888425e-105
7.71492890663e-105
7.71493078607e-105
7.71507428274e-105
7.72678977114e-105
7.99120513339e-105
7.816985898e-13
0.229219178027
0.639206767051
0.369068264145
0.23244502653
0.178628558784
0.159587157591
0.154262205447
0.152509531781
0.151187415222
0.149841399537
0.148450966852
0.147020681467
0.145530439908
0.143987537544
0.142430432178
0.140953828887
0.139463132881
0.13802594003
0.136657667971
0.135382772969
0.134224981471
0.133264624866
0.132383704149
0.131659543138
0.131106667281
0.130737343775
0.130441414744
7.71492888339e-105
7.71492888339e-105
7.7149288834e-105
7.71492888341e-105
7.71492888341e-105
7.71492888342e-105
7.71492888342e-105
7.71492888343e-105
7.71492888344e-105
7.71492888344e-105
7.71492888345e-105
7.71492888345e-105
7.71492888346e-105
7.71492888347e-105
7.71492888347e-105
7.71492888348e-105
7.71492888348e-105
7.71492888349e-105
7.71492888349e-105
7.7149288835e-105
7.71492888351e-105
7.71492888351e-105
7.71492888352e-105
7.71492888352e-105
7.71492888353e-105
7.71492888353e-105
7.71492888354e-105
7.71492888354e-105
7.71492888355e-105
7.71492888356e-105
7.71492888356e-105
7.71492888357e-105
7.71492888357e-105
7.71492888358e-105
7.71492888358e-105
7.71492888359e-105
7.71492888391e-105
7.71492890994e-105
7.71493110232e-105
7.71509870299e-105
7.72882193329e-105
8.02455705856e-105
6.83939671422e-11
0.260177695577
0.62827047537
0.364724922064
0.231587521508
0.178199658558
0.161162407911
0.156344599786
0.154492527029
0.153156616307
0.151760332555
0.150348753092
0.148887887584
0.147379366199
0.145819558473
0.144304246082
0.142759455556
0.141259061456
0.139819367303
0.138446206866
0.137167024137
0.136011184391
0.135050947912
0.134172094061
0.133443683414
0.132880947707
0.132503764133
0.132203914744
7.71492888318e-105
7.71492888319e-105
7.71492888319e-105
7.7149288832e-105
7.7149288832e-105
7.71492888321e-105
7.71492888321e-105
7.71492888322e-105
7.71492888322e-105
7.71492888323e-105
7.71492888323e-105
7.71492888323e-105
7.71492888324e-105
7.71492888324e-105
7.71492888325e-105
7.71492888325e-105
7.71492888326e-105
7.71492888326e-105
7.71492888327e-105
7.71492888327e-105
7.71492888328e-105
7.71492888328e-105
7.71492888329e-105
7.71492888329e-105
7.7149288833e-105
7.7149288833e-105
7.7149288833e-105
7.71492888331e-105
7.71492888331e-105
7.71492888332e-105
7.71492888332e-105
7.71492888333e-105
7.71492888333e-105
7.71492888334e-105
7.71492888334e-105
7.71492888335e-105
7.71492888367e-105
7.71492891007e-105
7.71493113307e-105
7.71510073988e-105
7.72895803322e-105
8.02770385624e-105
9.32652580435e-11
0.262401250444
0.627608248762
0.3665791512
0.232124258107
0.182046069621
0.164138581489
0.159113980694
0.157296297091
0.155909919492
0.154486287149
0.153040073018
0.151551967458
0.150013103574
0.148417628995
0.146875115397
0.145294994149
0.143769760151
0.142304835052
0.140907224059
0.139605261043
0.138486303352
0.137449679588
0.136560535272
0.135825710403
0.135261564551
0.134879289035
0.134573012799
7.71492888304e-105
7.71492888304e-105
7.71492888305e-105
7.71492888305e-105
7.71492888306e-105
7.71492888306e-105
7.71492888306e-105
7.71492888307e-105
7.71492888307e-105
7.71492888308e-105
7.71492888308e-105
7.71492888308e-105
7.71492888309e-105
7.71492888309e-105
7.7149288831e-105
7.7149288831e-105
7.7149288831e-105
7.71492888311e-105
7.71492888311e-105
7.71492888312e-105
7.71492888312e-105
7.71492888312e-105
7.71492888313e-105
7.71492888313e-105
7.71492888314e-105
7.71492888314e-105
7.71492888314e-105
7.71492888315e-105
7.71492888315e-105
7.71492888316e-105
7.71492888316e-105
7.71492888316e-105
7.71492888317e-105
7.71492888317e-105
7.71492888318e-105
7.71492888318e-105
7.71492888348e-105
7.71492890823e-105
7.71493099565e-105
7.7150907551e-105
7.7282226893e-105
8.01606991779e-105
2.46647618347e-11
0.25046059777
0.633634340274
0.370717766242
0.238659793867
0.184838701136
0.168053118213
0.16275478528
0.160853548242
0.159433319583
0.157932731357
0.156407741246
0.154858149771
0.153269734016
0.151641305608
0.150065975825
0.148448266392
0.146884729682
0.145373126681
0.143940257516
0.14260570142
0.141462177701
0.140405990366
0.13950742966
0.138768640641
0.138194940557
0.137801431052
0.137481155577
7.71492888293e-105
7.71492888294e-105
7.71492888294e-105
7.71492888295e-105
7.71492888295e-105
7.71492888295e-105
7.71492888296e-105
7.71492888296e-105
7.71492888296e-105
7.71492888297e-105
7.71492888297e-105
7.71492888297e-105
7.71492888298e-105
7.71492888298e-105
7.71492888298e-105
7.71492888299e-105
7.71492888299e-105
7.714928883e-105
7.714928883e-105
7.714928883e-105
7.71492888301e-105
7.71492888301e-105
7.71492888301e-105
7.71492888302e-105
7.71492888302e-105
7.71492888302e-105
7.71492888303e-105
7.71492888303e-105
7.71492888303e-105
7.71492888304e-105
7.71492888304e-105
7.71492888304e-105
7.71492888305e-105
7.71492888305e-105
7.71492888305e-105
7.71492888306e-105
7.71492888333e-105
7.71492890579e-105
7.71493080725e-105
7.71507690224e-105
7.72703178972e-105
7.99603872178e-105
9.00808165647e-13
0.229362334889
0.642837121064
0.379888143195
0.243828321658
0.190838076074
0.172255135705
0.167028064678
0.165089641551
0.163588936684
0.162014832014
0.160425935591
0.158809886548
0.157154416876
0.15546518172
0.153835534912
0.152172980253
0.150561724681
0.149005434195
0.147531720771
0.146223336225
0.144984226481
0.143903966666
0.142989549181
0.142238116762
0.141653745938
0.141247162178
0.140914003185
7.71492888285e-105
7.71492888286e-105
7.71492888286e-105
7.71492888286e-105
7.71492888287e-105
7.71492888287e-105
7.71492888287e-105
7.71492888288e-105
7.71492888288e-105
7.71492888288e-105
7.71492888289e-105
7.71492888289e-105
7.71492888289e-105
7.7149288829e-105
7.7149288829e-105
7.7149288829e-105
7.71492888291e-105
7.71492888291e-105
7.71492888291e-105
7.71492888292e-105
7.71492888292e-105
7.71492888292e-105
7.71492888292e-105
7.71492888293e-105
7.71492888293e-105
7.71492888293e-105
7.71492888294e-105
7.71492888294e-105
7.71492888294e-105
7.71492888295e-105
7.71492888295e-105
7.71492888295e-105
7.71492888296e-105
7.71492888296e-105
7.71492888296e-105
7.71492888297e-105
7.7149288832e-105
7.71492890295e-105
7.71493057483e-105
7.71505861647e-105
7.72548333887e-105
7.97177288389e-105
3.30408144349e-13
0.204828066488
0.653576198817
0.389036556584
0.252311097492
0.196184906445
0.177532730793
0.172110595858
0.170034146889
0.168379085697
0.166772368624
0.165094816691
0.163392007359
0.161666840243
0.159913940131
0.158216774679
0.156478636859
0.154797997054
0.153185675503
0.151663431774
0.150314307008
0.149041339359
0.147925758345
0.146980029542
0.146208268103
0.145609868671
0.145196905048
0.144868616917
7.71492888279e-105
7.7149288828e-105
7.7149288828e-105
7.7149288828e-105
7.7149288828e-105
7.71492888281e-105
7.71492888281e-105
7.71492888281e-105
7.71492888282e-105
7.71492888282e-105
7.71492888282e-105
7.71492888282e-105
7.71492888283e-105
7.71492888283e-105
7.71492888283e-105
7.71492888284e-105
7.71492888284e-105
7.71492888284e-105
7.71492888284e-105
7.71492888285e-105
7.71492888285e-105
7.71492888285e-105
7.71492888286e-105
7.71492888286e-105
7.71492888286e-105
7.71492888286e-105
7.71492888287e-105
7.71492888287e-105
7.71492888287e-105
7.71492888288e-105
7.71492888288e-105
7.71492888288e-105
7.71492888288e-105
7.71492888289e-105
7.71492888289e-105
7.7149288829e-105
7.7149288831e-105
7.71492890002e-105
7.7149303332e-105
7.71504028463e-105
7.72395919946e-105
7.94646972952e-105
1.77924135721e-16
0.178024068769
0.666760861905
0.40005338253
0.259065039677
0.203670424455
0.183690279325
0.177708378494
0.175486376555
0.173796720114
0.172130362386
0.170370690502
0.168583618604
0.166762357801
0.164927252154
0.163144723225
0.161343707456
0.159597622443
0.157927699311
0.1564099162
0.154940636097
0.153617966035
0.152460608315
0.151478836571
0.150684176806
0.150076017482
0.149660735447
0.149338966036
7.71492888274e-105
7.71492888275e-105
7.71492888275e-105
7.71492888275e-105
7.71492888275e-105
7.71492888276e-105
7.71492888276e-105
7.71492888276e-105
7.71492888276e-105
7.71492888277e-105
7.71492888277e-105
7.71492888277e-105
7.71492888277e-105
7.71492888278e-105
7.71492888278e-105
7.71492888278e-105
7.71492888278e-105
7.71492888279e-105
7.71492888279e-105
7.71492888279e-105
7.71492888279e-105
7.7149288828e-105
7.7149288828e-105
7.7149288828e-105
7.71492888281e-105
7.71492888281e-105
7.71492888281e-105
7.71492888281e-105
7.71492888282e-105
7.71492888282e-105
7.71492888282e-105
7.71492888282e-105
7.71492888283e-105
7.71492888283e-105
7.71492888283e-105
7.71492888284e-105
7.71492888301e-105
7.71492889768e-105
7.71493013882e-105
7.71502508122e-105
7.72266205903e-105
7.92184424851e-105
8.07851320057e-17
0.150713322072
0.680115601759
0.413044907581
0.26871779601
0.211458890276
0.190396521993
0.184014824354
0.181616666591
0.179798114377
0.178033176849
0.176180300862
0.174290434549
0.172392653591
0.170538830708
0.168622319629
0.166746964878
0.164928231239
0.163187954488
0.161616127997
0.160100201309
0.158738530609
0.157544163854
0.156526340289
0.155693949735
0.155054695822
0.154684361735
0.1542873363
7.7149288827e-105
7.7149288827e-105
7.71492888271e-105
7.71492888271e-105
7.71492888271e-105
7.71492888271e-105
7.71492888272e-105
7.71492888272e-105
7.71492888272e-105
7.71492888272e-105
7.71492888273e-105
7.71492888273e-105
7.71492888273e-105
7.71492888273e-105
7.71492888274e-105
7.71492888274e-105
7.71492888274e-105
7.71492888274e-105
7.71492888274e-105
7.71492888275e-105
7.71492888275e-105
7.71492888275e-105
7.71492888275e-105
7.71492888276e-105
7.71492888276e-105
7.71492888276e-105
7.71492888276e-105
7.71492888277e-105
7.71492888277e-105
7.71492888277e-105
7.71492888277e-105
7.71492888278e-105
7.71492888278e-105
7.71492888278e-105
7.71492888278e-105
7.71492888279e-105
7.71492888294e-105
7.71492889539e-105
7.71492995176e-105
7.71501124493e-105
7.72150804503e-105
7.89852019058e-105
6.05481994904e-23
0.121202750127
0.693209718323
0.426966221898
0.279417490539
0.218097003559
0.198107766142
0.191085376746
0.188446819358
0.186445039603
0.184538632955
0.182571006726
0.180592631305
0.178598248319
0.17665847234
0.17466363594
0.172701353559
0.170798766008
0.16904338507
0.167342879456
0.165777326595
0.164366518498
0.163132773409
0.162078440406
0.1612785266
0.160613888755
0.16016220078
0.159825832138
7.71492888267e-105
7.71492888267e-105
7.71492888267e-105
7.71492888267e-105
7.71492888267e-105
7.71492888268e-105
7.71492888268e-105
7.71492888268e-105
7.71492888268e-105
7.71492888269e-105
7.71492888269e-105
7.71492888269e-105
7.71492888269e-105
7.7149288827e-105
7.7149288827e-105
7.7149288827e-105
7.7149288827e-105
7.7149288827e-105
7.71492888271e-105
7.71492888271e-105
7.71492888271e-105
7.71492888271e-105
7.71492888272e-105
7.71492888272e-105
7.71492888272e-105
7.71492888272e-105
7.71492888273e-105
7.71492888273e-105
7.71492888273e-105
7.71492888273e-105
7.71492888273e-105
7.71492888274e-105
7.71492888274e-105
7.71492888274e-105
7.71492888274e-105
7.71492888275e-105
7.71492888287e-105
7.71492889327e-105
7.71492977659e-105
7.71499871939e-105
7.72050204491e-105
7.87687660036e-105
3.81778792967e-23
0.0939810061452
0.707255767467
0.440714216243
0.291055858103
0.227843472442
0.206013863503
0.198542038132
0.195854088638
0.193769196534
0.19176147914
0.189655032862
0.187539017177
0.185416053888
0.183361386681
0.181263418713
0.179208135318
0.177221984679
0.175387964037
0.173607925413
0.171975781418
0.170508276614
0.169288108444
0.16819437905
0.167300433148
0.166618802301
0.166153693858
0.165812630208
7.71492888264e-105
7.71492888264e-105
7.71492888264e-105
7.71492888264e-105
7.71492888264e-105
7.71492888265e-105
7.71492888265e-105
7.71492888265e-105
7.71492888265e-105
7.71492888266e-105
7.71492888266e-105
7.71492888266e-105
7.71492888266e-105
7.71492888266e-105
7.71492888267e-105
7.71492888267e-105
7.71492888267e-105
7.71492888267e-105
7.71492888267e-105
7.71492888268e-105
7.71492888268e-105
7.71492888268e-105
7.71492888268e-105
7.71492888269e-105
7.71492888269e-105
7.71492888269e-105
7.71492888269e-105
7.71492888269e-105
7.7149288827e-105
7.7149288827e-105
7.7149288827e-105
7.7149288827e-105
7.71492888271e-105
7.71492888271e-105
7.71492888271e-105
7.71492888271e-105
7.71492888282e-105
7.71492889149e-105
7.71492962285e-105
7.71498705466e-105
7.71955858042e-105
7.85728123518e-105
1.96185962128e-23
0.064094484008
0.722402998346
0.454743208241
0.302874754197
0.238081616688
0.21479188307
0.206822377719
0.203838470876
0.201617022559
0.199481999947
0.197267966604
0.195040022823
0.192859818268
0.19062510467
0.188411277721
0.186257161982
0.184240487014
0.182258957566
0.180404850949
0.178700515221
0.177220550881
0.175875177059
0.1747389094
0.173821930491
0.17312560275
0.172655376228
0.172320071172
7.71492888261e-105
7.71492888261e-105
7.71492888261e-105
7.71492888262e-105
7.71492888262e-105
7.71492888262e-105
7.71492888262e-105
7.71492888262e-105
7.71492888263e-105
7.71492888263e-105
7.71492888263e-105
7.71492888263e-105
7.71492888264e-105
7.71492888264e-105
7.71492888264e-105
7.71492888264e-105
7.71492888264e-105
7.71492888265e-105
7.71492888265e-105
7.71492888265e-105
7.71492888265e-105
7.71492888265e-105
7.71492888266e-105
7.71492888266e-105
7.71492888266e-105
7.71492888266e-105
7.71492888266e-105
7.71492888267e-105
7.71492888267e-105
7.71492888267e-105
7.71492888267e-105
7.71492888268e-105
7.71492888268e-105
7.71492888268e-105
7.71492888268e-105
7.71492888269e-105
7.71492888278e-105
7.71492889014e-105
7.7149295038e-105
7.71497806964e-105
7.7189006967e-105
7.84201552096e-105
4.33902024497e-24
0.0405462697038
0.73405095598
0.471425304947
0.314696470893
0.248034813995
0.223878682965
0.215786912493
0.212598753169
0.210189612648
0.20788515967
0.20550413157
0.203127996007
0.200802617037
0.198442337781
0.196116536817
0.193921417947
0.191746589159
0.189684344188
0.187750582749
0.18602526747
0.184412576767
0.183006445853
0.181820706581
0.180867391496
0.180148886982
0.179723111197
0.179314813775
7.71492888259e-105
7.71492888259e-105
7.71492888259e-105
7.71492888259e-105
7.7149288826e-105
7.7149288826e-105
7.7149288826e-105
7.7149288826e-105
7.7149288826e-105
7.71492888261e-105
7.71492888261e-105
7.71492888261e-105
7.71492888261e-105
7.71492888261e-105
7.71492888262e-105
7.71492888262e-105
7.71492888262e-105
7.71492888262e-105
7.71492888262e-105
7.71492888263e-105
7.71492888263e-105
7.71492888263e-105
7.71492888263e-105
7.71492888263e-105
7.71492888264e-105
7.71492888264e-105
7.71492888264e-105
7.71492888264e-105
7.71492888264e-105
7.71492888265e-105
7.71492888265e-105
7.71492888265e-105
7.71492888265e-105
7.71492888266e-105
7.71492888266e-105
7.71492888266e-105
7.71492888274e-105
7.71492888899e-105
7.71492940191e-105
7.71497016325e-105
7.71826508902e-105
7.83029290506e-105
7.65355994556e-38
0.0202820704241
0.745276931608
0.486849667979
0.327892844556
0.259080074388
0.234415634769
0.225606690896
0.221998377512
0.219387452772
0.216900916741
0.214358932487
0.211819661026
0.209347507595
0.206843384451
0.204377135938
0.20206289153
0.199792399267
0.197636813865
0.195680884597
0.193815380641
0.192139355197
0.190668133488
0.1894341453
0.188502949737
0.187753810663
0.187244018678
0.18689362902
7.71492888257e-105
7.71492888257e-105
7.71492888257e-105
7.71492888258e-105
7.71492888258e-105
7.71492888258e-105
7.71492888258e-105
7.71492888258e-105
7.71492888258e-105
7.71492888259e-105
7.71492888259e-105
7.71492888259e-105
7.71492888259e-105
7.71492888259e-105
7.7149288826e-105
7.7149288826e-105
7.7149288826e-105
7.7149288826e-105
7.7149288826e-105
7.71492888261e-105
7.71492888261e-105
7.71492888261e-105
7.71492888261e-105
7.71492888261e-105
7.71492888262e-105
7.71492888262e-105
7.71492888262e-105
7.71492888262e-105
7.71492888262e-105
7.71492888263e-105
7.71492888263e-105
7.71492888263e-105
7.71492888263e-105
7.71492888263e-105
7.71492888264e-105
7.71492888264e-105
7.71492888271e-105
7.71492888803e-105
7.71492931443e-105
7.71496312451e-105
7.71769139681e-105
7.82017788666e-105
6.2859931952e-38
0.00667109969536
0.751064651087
0.503997132652
0.341166141015
0.271482377882
0.24459256774
0.235547867024
0.231967692382
0.229244208512
0.226522335645
0.223803574427
0.221162921259
0.218484576714
0.215827102309
0.2132894367
0.210782084086
0.208385338008
0.206183691875
0.204065887735
0.202118743898
0.200367317569
0.198909987528
0.197627354106
0.196596458945
0.195809388083
0.19526750224
0.194901113742
7.71492888255e-105
7.71492888256e-105
7.71492888256e-105
7.71492888256e-105
7.71492888256e-105
7.71492888256e-105
7.71492888256e-105
7.71492888257e-105
7.71492888257e-105
7.71492888257e-105
7.71492888257e-105
7.71492888257e-105
7.71492888257e-105
7.71492888258e-105
7.71492888258e-105
7.71492888258e-105
7.71492888258e-105
7.71492888258e-105
7.71492888259e-105
7.71492888259e-105
7.71492888259e-105
7.71492888259e-105
7.71492888259e-105
7.7149288826e-105
7.7149288826e-105
7.7149288826e-105
7.7149288826e-105
7.7149288826e-105
7.71492888261e-105
7.71492888261e-105
7.71492888261e-105
7.71492888261e-105
7.71492888261e-105
7.71492888262e-105
7.71492888262e-105
7.71492888262e-105
7.71492888268e-105
7.7149288873e-105
7.71492924717e-105
7.7149572587e-105
7.71722144138e-105
7.81176481259e-105
5.36695923504e-38
0.00121183935414
0.740380023353
0.519436215073
0.355581845636
0.283229051096
0.256362937356
0.246247354075
0.242451558592
0.239585512287
0.2366886132
0.233800634509
0.230983296649
0.228134974646
0.225401609139
0.222667785439
0.220032422664
0.217580364005
0.215202879866
0.213000170823
0.21102999308
0.209201465016
0.207610308071
0.20627308284
0.205191006639
0.20436716657
0.20386725919
0.203490488934
7.71492888254e-105
7.71492888254e-105
7.71492888254e-105
7.71492888254e-105
7.71492888255e-105
7.71492888255e-105
7.71492888255e-105
7.71492888255e-105
7.71492888255e-105
7.71492888255e-105
7.71492888256e-105
7.71492888256e-105
7.71492888256e-105
7.71492888256e-105
7.71492888256e-105
7.71492888256e-105
7.71492888257e-105
7.71492888257e-105
7.71492888257e-105
7.71492888257e-105
7.71492888257e-105
7.71492888258e-105
7.71492888258e-105
7.71492888258e-105
7.71492888258e-105
7.71492888258e-105
7.71492888259e-105
7.71492888259e-105
7.71492888259e-105
7.71492888259e-105
7.71492888259e-105
7.7149288826e-105
7.7149288826e-105
7.7149288826e-105
7.7149288826e-105
7.7149288826e-105
7.71492888266e-105
7.71492888674e-105
7.7149292012e-105
7.7149533362e-105
7.71686760101e-105
7.80482080645e-105
4.5306305867e-38
0.000284609250275
0.713398230115
0.536720953266
0.370520173806
0.295824427274
0.267704267381
0.257779469593
0.253693618124
0.250528204098
0.24744584684
0.24443988844
0.241399065193
0.238377270172
0.235476429909
0.232594102198
0.229875190489
0.227231937585
0.224745039555
0.222496225653
0.220375777559
0.218480403147
0.216823074886
0.21549763248
0.214365302666
0.213503920239
0.2129109513
0.212539937364
7.71492888253e-105
7.71492888253e-105
7.71492888253e-105
7.71492888253e-105
7.71492888253e-105
7.71492888253e-105
7.71492888254e-105
7.71492888254e-105
7.71492888254e-105
7.71492888254e-105
7.71492888254e-105
7.71492888254e-105
7.71492888255e-105
7.71492888255e-105
7.71492888255e-105
7.71492888255e-105
7.71492888255e-105
7.71492888255e-105
7.71492888256e-105
7.71492888256e-105
7.71492888256e-105
7.71492888256e-105
7.71492888256e-105
7.71492888257e-105
7.71492888257e-105
7.71492888257e-105
7.71492888257e-105
7.71492888257e-105
7.71492888258e-105
7.71492888258e-105
7.71492888258e-105
7.71492888258e-105
7.71492888258e-105
7.71492888259e-105
7.71492888259e-105
7.71492888259e-105
7.71492888264e-105
7.71492888622e-105
7.71492916153e-105
7.71494990257e-105
7.71655305119e-105
7.79833469624e-105
3.73663054102e-38
0.000104855873148
0.669036006123
0.552790776929
0.385416367503
0.309267443645
0.280217497163
0.269755073161
0.265383638757
0.262049040005
0.258766562443
0.255564804031
0.252338971693
0.249218167391
0.246089493147
0.243046988179
0.240187629839
0.237407671551
0.234870799634
0.232458102014
0.230248725318
0.228341050941
0.226610389592
0.22515095612
0.22397227697
0.223074206999
0.222522928609
0.222130171748
7.71492888251e-105
7.71492888252e-105
7.71492888252e-105
7.71492888252e-105
7.71492888252e-105
7.71492888252e-105
7.71492888252e-105
7.71492888253e-105
7.71492888253e-105
7.71492888253e-105
7.71492888253e-105
7.71492888253e-105
7.71492888253e-105
7.71492888254e-105
7.71492888254e-105
7.71492888254e-105
7.71492888254e-105
7.71492888254e-105
7.71492888254e-105
7.71492888255e-105
7.71492888255e-105
7.71492888255e-105
7.71492888255e-105
7.71492888255e-105
7.71492888255e-105
7.71492888256e-105
7.71492888256e-105
7.71492888256e-105
7.71492888256e-105
7.71492888257e-105
7.71492888257e-105
7.71492888257e-105
7.71492888257e-105
7.71492888257e-105
7.71492888258e-105
7.71492888258e-105
7.71492888262e-105
7.7149288858e-105
7.7149291297e-105
7.71494731319e-105
7.71626029731e-105
7.79278200617e-105
3.20526911308e-38
5.18441079498e-05
0.627820242157
0.567794941055
0.400850305619
0.322565969308
0.293911614783
0.282878964226
0.277937150293
0.274254013429
0.270728032896
0.267296261153
0.26385949231
0.260539246833
0.257225891123
0.254076057238
0.250998126619
0.248148205022
0.245427243298
0.242906088328
0.240682950687
0.23862397097
0.236828032149
0.2353820238
0.234149015733
0.233203660982
0.232554445225
0.23214911808
7.7149288825e-105
7.7149288825e-105
7.71492888251e-105
7.71492888251e-105
7.71492888251e-105
7.71492888251e-105
7.71492888251e-105
7.71492888251e-105
7.71492888252e-105
7.71492888252e-105
7.71492888252e-105
7.71492888252e-105
7.71492888252e-105
7.71492888252e-105
7.71492888253e-105
7.71492888253e-105
7.71492888253e-105
7.71492888253e-105
7.71492888253e-105
7.71492888253e-105
7.71492888254e-105
7.71492888254e-105
7.71492888254e-105
7.71492888254e-105
7.71492888254e-105
7.71492888255e-105
7.71492888255e-105
7.71492888255e-105
7.71492888255e-105
7.71492888255e-105
7.71492888256e-105
7.71492888256e-105
7.71492888256e-105
7.71492888256e-105
7.71492888256e-105
7.71492888257e-105
7.71492888261e-105
7.71492888547e-105
7.71492910557e-105
7.71494564006e-105
7.71607034189e-105
7.78764266477e-105
2.3382920265e-38
2.96975729168e-05
0.587237126457
0.583606408847
0.415759145395
0.338164125546
0.307135344339
0.29583128282
0.29075966886
0.286868271859
0.283161968359
0.27948495516
0.275925667959
0.272359043833
0.268944229534
0.265574546014
0.262409689434
0.259351847011
0.256572742524
0.253942140271
0.251541227632
0.249475450728
0.247603921503
0.246019353053
0.244733166039
0.243821237363
0.243126658701
0.242703668294
7.71492888249e-105
7.71492888249e-105
7.7149288825e-105
7.7149288825e-105
7.7149288825e-105
7.7149288825e-105
7.7149288825e-105
7.7149288825e-105
7.71492888251e-105
7.71492888251e-105
7.71492888251e-105
7.71492888251e-105
7.71492888251e-105
7.71492888251e-105
7.71492888252e-105
7.71492888252e-105
7.71492888252e-105
7.71492888252e-105
7.71492888252e-105
7.71492888252e-105
7.71492888253e-105
7.71492888253e-105
7.71492888253e-105
7.71492888253e-105
7.71492888253e-105
7.71492888254e-105
7.71492888254e-105
7.71492888254e-105
7.71492888254e-105
7.71492888254e-105
7.71492888255e-105
7.71492888255e-105
7.71492888255e-105
7.71492888255e-105
7.71492888256e-105
7.71492888256e-105
7.71492888259e-105
7.7149288852e-105
7.71492908477e-105
7.71494412759e-105
7.71595552886e-105
7.78284769492e-105
2.01246305743e-38
1.74251199289e-05
0.547011626449
0.599207494576
0.429714011598
0.352339022367
0.321155183575
0.309732704883
0.304217086493
0.300091727508
0.296168850932
0.29225548392
0.288476906969
0.28477664794
0.281111949003
0.277625866153
0.274234257048
0.271112217156
0.268128266816
0.265382336243
0.262957637658
0.260734291395
0.258786915716
0.257216816104
0.255872119052
0.254835015871
0.254105105063
0.25366545615
7.71492888248e-105
7.71492888249e-105
7.71492888249e-105
7.71492888249e-105
7.71492888249e-105
7.71492888249e-105
7.71492888249e-105
7.71492888249e-105
7.7149288825e-105
7.7149288825e-105
7.7149288825e-105
7.7149288825e-105
7.7149288825e-105
7.7149288825e-105
7.71492888251e-105
7.71492888251e-105
7.71492888251e-105
7.71492888251e-105
7.71492888251e-105
7.71492888252e-105
7.71492888252e-105
7.71492888252e-105
7.71492888252e-105
7.71492888252e-105
7.71492888253e-105
7.71492888253e-105
7.71492888253e-105
7.71492888253e-105
7.71492888253e-105
7.71492888254e-105
7.71492888254e-105
7.71492888254e-105
7.71492888254e-105
7.71492888255e-105
7.71492888255e-105
7.71492888255e-105
7.71492888258e-105
7.71492888498e-105
7.714929067e-105
7.71494280645e-105
7.71587549451e-105
7.77884724728e-105
1.79879603924e-38
1.11826483768e-05
0.51360806134
0.612691593993
0.446852663281
0.366488384089
0.336113792902
0.323958795676
0.318235528711
0.313901338533
0.309670634201
0.305591075129
0.30152724501
0.29761889092
0.293836106749
0.290121765457
0.286630204482
0.283290444007
0.280240391264
0.277371512721
0.274780885123
0.272525362022
0.27050638122
0.26878622736
0.267457338415
0.266374765492
0.265606386653