/*--------------------------------*- C++ -*----------------------------------*\
| =========                 |                                                 |
| \\      /  F ield         | foam-extend: Open Source CFD                    |
|  \\    /   O peration     | Version:     4.1                                |
|   \\  /    A nd           | Web:         http://www.foam-extend.org         |
|    \\/     M anipulation  |                                                 |
\*---------------------------------------------------------------------------*/
FoamFile
{
    version     2.0;
    format      ascii;
    class       volScalarField;
    location    "0.0001";
    object      N2;
}
// * * * * * * * * * * * * * * * * * * * * * * * * * * * * * * * * * * * * * //

dimensions      [0 0 0 0 0 0 0];

internalField   nonuniform List<scalar> 
8400
(
0.767082
0.767082
0.767082
0.767082
0.767082
0.767082
0.767082
0.767082
0.767082
0.767082
0.767082
0.767082
0.767082
0.767082
0.767082
0.767082
0.767082
0.767082
0.767082
0.767082
0.767082
0.767082
0.767082
0.767082
0.767082
0.767082
0.767082
0.767082
0.767082
0.767082
0.767082
0.767082
0.767082
0.767082
0.767082
0.767082
0.767082
0.767082
0.767082
0.767082
0.767082
0.767082
0.767082
0.758957742283
0.348608931954
7.40657985145e-05
7.15539292647e-06
1.98820474969e-06
1.09461542197e-06
8.62222398898e-07
7.91859212443e-07
7.58676716937e-07
7.33670224952e-07
7.08669524848e-07
6.84179613151e-07
6.60039774659e-07
6.37028774862e-07
6.13720937621e-07
5.91010666154e-07
5.69292449197e-07
5.49490812072e-07
5.30416489564e-07
5.12868109431e-07
4.97152661136e-07
4.83400626411e-07
4.72453020015e-07
4.63020463946e-07
4.55890078227e-07
4.51101240166e-07
4.46663245524e-07
0.767082
0.767082
0.767082
0.767082
0.767082
0.767082
0.767082
0.767082
0.767082
0.767082
0.767082
0.767082
0.767082
0.767082
0.767082
0.767082
0.767082
0.767082
0.767082
0.767082
0.767082
0.767082
0.767082
0.767082
0.767082
0.767082
0.767082
0.767082
0.767082
0.767082
0.767082
0.767082
0.767082
0.767082
0.767082
0.767082
0.767082
0.767082
0.767082
0.767082
0.767082
0.767082
0.767082
0.754020085113
0.00212473281465
2.06503955942e-05
3.44810121559e-06
1.28010163635e-06
8.66560300888e-07
7.53949864557e-07
7.17558681515e-07
6.96004923558e-07
6.75697792758e-07
6.55315027866e-07
6.34846824775e-07
6.141960419e-07
5.93371487746e-07
5.73530988779e-07
5.53439219949e-07
5.34252560882e-07
5.1614096161e-07
4.99360399923e-07
4.84034275928e-07
4.70267462097e-07
4.58947290306e-07
4.48768946005e-07
4.40474384446e-07
4.34198510067e-07
4.29963843886e-07
4.26627308299e-07
0.767082
0.767082
0.767082
0.767082
0.767082
0.767082
0.767082
0.767082
0.767082
0.767082
0.767082
0.767082
0.767082
0.767082
0.767082
0.767082
0.767082
0.767082
0.767082
0.767082
0.767082
0.767082
0.767082
0.767082
0.767082
0.767082
0.767082
0.767082
0.767082
0.767082
0.767082
0.767082
0.767082
0.767082
0.767082
0.767082
0.767082
0.767082
0.767082
0.767082
0.767082
0.767082
0.767035082005
0.619004154273
0.000261161338995
1.19814264629e-05
2.46222170042e-06
1.10155402351e-06
8.06437866674e-07
7.25975134366e-07
7.01707798956e-07
6.83114923283e-07
6.64255624299e-07
6.45106646607e-07
6.25857395559e-07
6.06279234157e-07
5.86614236039e-07
5.66947310924e-07
5.4865665241e-07
5.30526759524e-07
5.13458533704e-07
4.97693633232e-07
4.83272928439e-07
4.70333523032e-07
4.59739973204e-07
4.50205836027e-07
4.42429034238e-07
4.36591075531e-07
4.3267772461e-07
4.29715687671e-07
0.767082
0.767082
0.767082
0.767082
0.767082
0.767082
0.767082
0.767082
0.767082
0.767082
0.767082
0.767082
0.767082
0.767082
0.767082
0.767082
0.767082
0.767082
0.767082
0.767082
0.767082
0.767082
0.767082
0.767082
0.767082
0.767082
0.767082
0.767082
0.767082
0.767082
0.767082
0.767082
0.767082
0.767082
0.767082
0.767082
0.767082
0.767082
0.767082
0.767082
0.767082
0.767082
0.766556391652
0.536676080517
0.000152048102982
9.41662548542e-06
2.19656997031e-06
1.07595235654e-06
8.05801614268e-07
7.38300414931e-07
7.14238805595e-07
6.95261244727e-07
6.76154604533e-07
6.56769813178e-07
6.372599834e-07
6.17421661211e-07
5.97436504616e-07
5.77736920332e-07
5.59436333273e-07
5.41349752746e-07
5.24300960055e-07
5.08438926709e-07
4.93980964709e-07
4.81101062793e-07
4.70566408381e-07
4.61132510445e-07
4.53458338827e-07
4.47686676237e-07
4.43830830687e-07
4.40991717844e-07
0.767082
0.767082
0.767082
0.767082
0.767082
0.767082
0.767082
0.767082
0.767082
0.767082
0.767082
0.767082
0.767082
0.767082
0.767082
0.767082
0.767082
0.767082
0.767082
0.767082
0.767082
0.767082
0.767082
0.767082
0.767082
0.767082
0.767082
0.767082
0.767082
0.767082
0.767082
0.767082
0.767082
0.767082
0.767082
0.767082
0.767082
0.767082
0.767082
0.767082
0.767082
0.767082
0.766009270984
0.505774228911
0.000131313870058
9.06885499696e-06
2.18554486657e-06
1.07249540748e-06
8.31914937587e-07
7.69565623397e-07
7.43191884e-07
7.23424554196e-07
7.03025819338e-07
6.82774768049e-07
6.62267385341e-07
6.41615348052e-07
6.2080628373e-07
6.01053504961e-07
5.81340857577e-07
5.62626475499e-07
5.45054292224e-07
5.28688494162e-07
5.13749574325e-07
5.00523966203e-07
4.89734670039e-07
4.8000880481e-07
4.72077647527e-07
4.6604219365e-07
4.62033057675e-07
4.59063369808e-07
0.767082
0.767082
0.767082
0.767082
0.767082
0.767082
0.767082
0.767082
0.767082
0.767082
0.767082
0.767082
0.767082
0.767082
0.767082
0.767082
0.767082
0.767082
0.767082
0.767082
0.767082
0.767082
0.767082
0.767082
0.767082
0.767082
0.767082
0.767082
0.767082
0.767082
0.767082
0.767082
0.767082
0.767082
0.767082
0.767082
0.767082
0.767082
0.767082
0.767082
0.767082
0.767082
0.765892204368
0.503554272126
0.000130299941653
9.26536279229e-06
2.20532686704e-06
1.14758231505e-06
8.80626059627e-07
8.12319336541e-07
7.85404997027e-07
7.64103317466e-07
7.42497608405e-07
7.2092667756e-07
6.99187276185e-07
6.77248265414e-07
6.55085173649e-07
6.34160007347e-07
6.13208833468e-07
5.93428542678e-07
5.74848551394e-07
5.57534809793e-07
5.41754037421e-07
5.2843100482e-07
5.16339666065e-07
5.06124367838e-07
4.97777626601e-07
4.91507153546e-07
4.8727257599e-07
4.84115516731e-07
0.767082
0.767082
0.767082
0.767082
0.767082
0.767082
0.767082
0.767082
0.767082
0.767082
0.767082
0.767082
0.767082
0.767082
0.767082
0.767082
0.767082
0.767082
0.767082
0.767082
0.767082
0.767082
0.767082
0.767082
0.767082
0.767082
0.767082
0.767082
0.767082
0.767082
0.767082
0.767082
0.767082
0.767082
0.767082
0.767082
0.767082
0.767082
0.767082
0.767082
0.767082
0.767082
0.766214272943
0.515474030601
0.00014140829855
9.66257758704e-06
2.41320820509e-06
1.2027906391e-06
9.47144439091e-07
8.71026711805e-07
8.41348976771e-07
8.18396483737e-07
7.94510390709e-07
7.70686591405e-07
7.4696376369e-07
7.23212669741e-07
6.99475568937e-07
6.7704710011e-07
6.54545020481e-07
6.33274981045e-07
6.13195329788e-07
5.94607226559e-07
5.77688057658e-07
5.63464246589e-07
5.50532568209e-07
5.39668924576e-07
5.30907526854e-07
5.24172934791e-07
5.19638314617e-07
5.16214768289e-07
0.767082
0.767082
0.767082
0.767082
0.767082
0.767082
0.767082
0.767082
0.767082
0.767082
0.767082
0.767082
0.767082
0.767082
0.767082
0.767082
0.767082
0.767082
0.767082
0.767082
0.767082
0.767082
0.767082
0.767082
0.767082
0.767082
0.767082
0.767082
0.767082
0.767082
0.767082
0.767082
0.767082
0.767082
0.767082
0.767082
0.767082
0.767082
0.767082
0.767082
0.767082
0.767082
0.766496814928
0.536531577562
0.00016088761264
1.06045337174e-05
2.58268566772e-06
1.32790391774e-06
1.02225712667e-06
9.43716951077e-07
9.11671496175e-07
8.85905190741e-07
8.59340647738e-07
8.3306057005e-07
8.06942732476e-07
7.80830021522e-07
7.5486092858e-07
7.30358272586e-07
7.05901853484e-07
6.82727899554e-07
6.6092179676e-07
6.4075561305e-07
6.2321053021e-07
6.06929151853e-07
5.92970600554e-07
5.81325604331e-07
5.71851556917e-07
5.64663427448e-07
5.59695314715e-07
5.55930105213e-07
0.767082
0.767082
0.767082
0.767082
0.767082
0.767082
0.767082
0.767082
0.767082
0.767082
0.767082
0.767082
0.767082
0.767082
0.767082
0.767082
0.767082
0.767082
0.767082
0.767082
0.767082
0.767082
0.767082
0.767082
0.767082
0.767082
0.767082
0.767082
0.767082
0.767082
0.767082
0.767082
0.767082
0.767082
0.767082
0.767082
0.767082
0.767082
0.767082
0.767082
0.767082
0.767082
0.766778502256
0.561013252155
0.000188519449255
1.16114833911e-05
2.88317153204e-06
1.44599341586e-06
1.12253340565e-06
1.03586896312e-06
9.99030419908e-07
9.68650338819e-07
9.39684246157e-07
9.10093054393e-07
8.80720930564e-07
8.51658507048e-07
8.22941824626e-07
7.95816026867e-07
7.68697180165e-07
7.4307204649e-07
7.19040441374e-07
6.96894963343e-07
6.77659496302e-07
6.59892540268e-07
6.44589699799e-07
6.31796759812e-07
6.21462491208e-07
6.13630471264e-07
6.0825502276e-07
6.04289618252e-07
0.767082
0.767082
0.767082
0.767082
0.767082
0.767082
0.767082
0.767082
0.767082
0.767082
0.767082
0.767082
0.767082
0.767082
0.767082
0.767082
0.767082
0.767082
0.767082
0.767082
0.767082
0.767082
0.767082
0.767082
0.767082
0.767082
0.767082
0.767082
0.767082
0.767082
0.767082
0.767082
0.767082
0.767082
0.767082
0.767082
0.767082
0.767082
0.767082
0.767082
0.767082
0.767082
0.766968171629
0.587749455579
0.000232737984807
1.29432566472e-05
3.13644854739e-06
1.62479003605e-06
1.24798545089e-06
1.14462678808e-06
1.10231195656e-06
1.06893936856e-06
1.03659875057e-06
1.00318955039e-06
9.70024069307e-07
9.37147065738e-07
9.04892853236e-07
8.74315442046e-07
8.44163634738e-07
8.15702257479e-07
7.89123128289e-07
7.65509597632e-07
7.43187848733e-07
7.23492337403e-07
7.06530811972e-07
6.92310433092e-07
6.81010701417e-07
6.72389976232e-07
6.66618332166e-07
6.62470688356e-07
0.767082
0.767082
0.767082
0.767082
0.767082
0.767082
0.767082
0.767082
0.767082
0.767082
0.767082
0.767082
0.767082
0.767082
0.767082
0.767082
0.767082
0.767082
0.767082
0.767082
0.767082
0.767082
0.767082
0.767082
0.767082
0.767082
0.767082
0.767082
0.767082
0.767082
0.767082
0.767082
0.767082
0.767082
0.767082
0.767082
0.767082
0.767082
0.767082
0.767082
0.767082
0.767082
0.76702701247
0.614976743646
0.000294557121508
1.47048847704e-05
3.53385273008e-06
1.82724529149e-06
1.3959765703e-06
1.27696732916e-06
1.2275961842e-06
1.18859506724e-06
1.15147635935e-06
1.11348036173e-06
1.07564612165e-06
1.03861358776e-06
1.00340153567e-06
9.67951045942e-07
9.34112625216e-07
9.02196054625e-07
8.7237876139e-07
8.46049229222e-07
8.21242317201e-07
7.99409115228e-07
7.80600646575e-07
7.64805139644e-07
7.52077592681e-07
7.42436502865e-07
7.36887377249e-07
7.31321734611e-07
0.767082
0.767082
0.767082
0.767082
0.767082
0.767082
0.767082
0.767082
0.767082
0.767082
0.767082
0.767082
0.767082
0.767082
0.767082
0.767082
0.767082
0.767082
0.767082
0.767082
0.767082
0.767082
0.767082
0.767082
0.767082
0.767082
0.767082
0.767082
0.767082
0.767082
0.767082
0.767082
0.767082
0.767082
0.767082
0.767082
0.767082
0.767082
0.767082
0.767082
0.767082
0.767082
0.767075118534
0.644372723448
0.000382190311478
1.6844075815e-05
4.01985546756e-06
2.01263341735e-06
1.58184119187e-06
1.43816644738e-06
1.37897935924e-06
1.33230112031e-06
1.2887398643e-06
1.24481254904e-06
1.20176490567e-06
1.15951171285e-06
1.11941651282e-06
1.07941009536e-06
1.04108010645e-06
1.00483924363e-06
9.72296816193e-07
9.41500901937e-07
9.13765289318e-07
8.89278382728e-07
8.68235892092e-07
8.50524401204e-07
8.37333761641e-07
8.2646361743e-07
8.19178571767e-07
8.14125685481e-07
0.767082
0.767082
0.767082
0.767082
0.767082
0.767082
0.767082
0.767082
0.767082
0.767082
0.767082
0.767082
0.767082
0.767082
0.767082
0.767082
0.767082
0.767082
0.767082
0.767082
0.767082
0.767082
0.767082
0.767082
0.767082
0.767082
0.767082
0.767082
0.767082
0.767082
0.767082
0.767082
0.767082
0.767082
0.767082
0.767082
0.767082
0.767082
0.767082
0.767082
0.767082
0.767082
0.767077718045
0.671452191426
0.000529906958807
1.92387907764e-05
4.60766308386e-06
2.3127052803e-06
1.79038509326e-06
1.6239894409e-06
1.55820802203e-06
1.50479687169e-06
1.45451541554e-06
1.40314005011e-06
1.35288797279e-06
1.30382261872e-06
1.25751367851e-06
1.21161089971e-06
1.1677972051e-06
1.1266697658e-06
1.08961136778e-06
1.05452035789e-06
1.02307098134e-06
9.95395622085e-07
9.72787828801e-07
9.52864888093e-07
9.36765957033e-07
9.2466874826e-07
9.16415792315e-07
9.10846143549e-07
0.767082
0.767082
0.767082
0.767082
0.767082
0.767082
0.767082
0.767082
0.767082
0.767082
0.767082
0.767082
0.767082
0.767082
0.767082
0.767082
0.767082
0.767082
0.767082
0.767082
0.767082
0.767082
0.767082
0.767082
0.767082
0.767082
0.767082
0.767082
0.767082
0.767082
0.767082
0.767082
0.767082
0.767082
0.767082
0.767082
0.767082
0.767082
0.767082
0.767082
0.767082
0.767082
0.767079825469
0.701105800054
0.000825169634683
2.20299696086e-05
5.27350659781e-06
2.66324932723e-06
2.04551059289e-06
1.85063366814e-06
1.77008837972e-06
1.7075694123e-06
1.64862570877e-06
1.58923079227e-06
1.53102339488e-06
1.47568131484e-06
1.42053378008e-06
1.36752719873e-06
1.31734774509e-06
1.27160358401e-06
1.22788454611e-06
1.18794805641e-06
1.15208863072e-06
1.12161958858e-06
1.09445714211e-06
1.07187677998e-06
1.05384125314e-06
1.04023533881e-06
1.03109270366e-06
1.02503959383e-06
0.767082
0.767082
0.767082
0.767082
0.767082
0.767082
0.767082
0.767082
0.767082
0.767082
0.767082
0.767082
0.767082
0.767082
0.767082
0.767082
0.767082
0.767082
0.767082
0.767082
0.767082
0.767082
0.767082
0.767082
0.767082
0.767082
0.767082
0.767082
0.767082
0.767082
0.767082
0.767082
0.767082
0.767082
0.767082
0.767082
0.767082
0.767082
0.767082
0.767082
0.767082
0.767082
0.767081523975
0.724341426185
0.00130341391281
2.59259412707e-05
6.01551790011e-06
3.04051695896e-06
2.33737267524e-06
2.1217828537e-06
2.02677301572e-06
1.9516320722e-06
1.88114593029e-06
1.81055593726e-06
1.74204105566e-06
1.67699879931e-06
1.61291228096e-06
1.55154160399e-06
1.49525045022e-06
1.44100010787e-06
1.39094039514e-06
1.34529064526e-06
1.30554259114e-06
1.26922656688e-06
1.23813741592e-06
1.21230101488e-06
1.19171295927e-06
1.17634889792e-06
1.1671639088e-06
1.15902998315e-06
0.767082
0.767082
0.767082
0.767082
0.767082
0.767082
0.767082
0.767082
0.767082
0.767082
0.767082
0.767082
0.767082
0.767082
0.767082
0.767082
0.767082
0.767082
0.767082
0.767082
0.767082
0.767082
0.767082
0.767082
0.767082
0.767082
0.767082
0.767082
0.767082
0.767082
0.767082
0.767082
0.767082
0.767082
0.767082
0.767082
0.767082
0.767082
0.767082
0.767082
0.767082
0.767082
0.767082
0.744038212462
0.00258405519565
3.01389382422e-05
6.94824746589e-06
3.50732816942e-06
2.71456940528e-06
2.45237845717e-06
2.33228479079e-06
2.24144629302e-06
2.15704168634e-06
2.07329696786e-06
1.99211776574e-06
1.91557362185e-06
1.84041602371e-06
1.76856722861e-06
1.70307323743e-06
1.64047460923e-06
1.58277687625e-06
1.53171305311e-06
1.48433514988e-06
1.44278601123e-06
1.40699291049e-06
1.37736153685e-06
1.35524074698e-06
1.33753873281e-06
1.32557215143e-06
1.31780404186e-06
0.767082
0.767082
0.767082
0.767082
0.767082
0.767082
0.767082
0.767082
0.767082
0.767082
0.767082
0.767082
0.767082
0.767082
0.767082
0.767082
0.767082
0.767082
0.767082
0.767082
0.767082
0.767082
0.767082
0.767082
0.767082
0.767082
0.767082
0.767082
0.767082
0.767082
0.767082
0.767082
0.767082
0.767082
0.767082
0.767082
0.767082
0.767082
0.767082
0.767082
0.767082
0.767082
0.767082
0.75642864805
0.00658156571248
3.57265452661e-05
8.00757584831e-06
4.09855655533e-06
3.1215413271e-06
2.82555988684e-06
2.69355746017e-06
2.58744969882e-06
2.48409763388e-06
2.38425060382e-06
2.29023238217e-06
2.1978841271e-06
2.10915196735e-06
2.0270491895e-06
1.94837740457e-06
1.87523720701e-06
1.80999838558e-06
1.74892708748e-06
1.69429847392e-06
1.64630068428e-06
1.60700455658e-06
1.57291521299e-06
1.54582286068e-06
1.52534757221e-06
1.5112696783e-06
1.50220628488e-06
0.767082
0.767082
0.767082
0.767082
0.767082
0.767082
0.767082
0.767082
0.767082
0.767082
0.767082
0.767082
0.767082
0.767082
0.767082
0.767082
0.767082
0.767082
0.767082
0.767082
0.767082
0.767082
0.767082
0.767082
0.767082
0.767082
0.767082
0.767082
0.767082
0.767082
0.767082
0.767082
0.767082
0.767082
0.767082
0.767082
0.767082
0.767082
0.767082
0.767082
0.767082
0.767082
0.767082
0.759240578705
0.0231589541934
4.16970007359e-05
9.31866658445e-06
4.72800758671e-06
3.64990619578e-06
3.27465370261e-06
3.11785403927e-06
2.99257951888e-06
2.86941154481e-06
2.75072161172e-06
2.63877046044e-06
2.52926444467e-06
2.42733620253e-06
2.32870308694e-06
2.2365408132e-06
2.15337272896e-06
2.075023499e-06
2.00453242437e-06
1.9429850708e-06
1.88734404224e-06
1.83984096978e-06
1.80045034524e-06
1.76899284003e-06
1.74520543087e-06
1.73075205929e-06
1.72040026602e-06
0.767082
0.767082
0.767082
0.767082
0.767082
0.767082
0.767082
0.767082
0.767082
0.767082
0.767082
0.767082
0.767082
0.767082
0.767082
0.767082
0.767082
0.767082
0.767082
0.767082
0.767082
0.767082
0.767082
0.767082
0.767082
0.767082
0.767082
0.767082
0.767082
0.767082
0.767082
0.767082
0.767082
0.767082
0.767082
0.767082
0.767082
0.767082
0.767082
0.767082
0.767082
0.767082
0.767082
0.757154231395
0.0517601682469
4.97962393557e-05
1.08762241103e-05
5.48842235968e-06
4.22325718179e-06
3.81923586785e-06
3.62901763151e-06
3.47327544845e-06
3.32584176446e-06
3.18676140384e-06
3.05102308383e-06
2.92078995675e-06
2.79989188935e-06
2.68376547967e-06
2.57754149554e-06
2.47754553689e-06
2.38632552006e-06
2.30591909861e-06
2.23231214129e-06
2.16801611835e-06
2.11288166968e-06
2.06939480626e-06
2.03271285973e-06
2.00500674093e-06
1.98599025704e-06
1.97453849684e-06
0.767082
0.767082
0.767082
0.767082
0.767082
0.767082
0.767082
0.767082
0.767082
0.767082
0.767082
0.767082
0.767082
0.767082
0.767082
0.767082
0.767082
0.767082
0.767082
0.767082
0.767082
0.767082
0.767082
0.767082
0.767082
0.767082
0.767082
0.767082
0.767082
0.767082
0.767082
0.767082
0.767082
0.767082
0.767082
0.767082
0.767082
0.767082
0.767082
0.767082
0.767082
0.767082
0.767082
0.755474485614
0.0967777314544
5.89589553517e-05
1.26596263493e-05
6.4105350486e-06
4.93731164544e-06
4.45780532182e-06
4.22791031353e-06
4.04252584806e-06
3.86539000023e-06
3.69849462921e-06
3.53627965871e-06
3.38468709169e-06
3.23823245341e-06
3.10077995385e-06
2.97570361092e-06
2.8580672656e-06
2.75382322486e-06
2.65744169719e-06
2.57173298688e-06
2.4993223018e-06
2.43507260987e-06
2.38178198988e-06
2.33924179104e-06
2.30695083164e-06
2.28705325394e-06
2.27332568706e-06
0.767082
0.767082
0.767082
0.767082
0.767082
0.767082
0.767082
0.767082
0.767082
0.767082
0.767082
0.767082
0.767082
0.767082
0.767082
0.767082
0.767082
0.767082
0.767082
0.767082
0.767082
0.767082
0.767082
0.767082
0.767082
0.767082
0.767082
0.767082
0.767082
0.767082
0.767082
0.767082
0.767082
0.767082
0.767082
0.767082
0.767082
0.767082
0.767082
0.767082
0.767082
0.767082
0.767082
0.754673716267
0.13820229291
6.93450553255e-05
1.47934096594e-05
7.44628001129e-06
5.82877981662e-06
5.25399946389e-06
4.95683488604e-06
4.72371950237e-06
4.50774924725e-06
4.30517845423e-06
4.10993547722e-06
3.92812848699e-06
3.75356697624e-06
3.59349272568e-06
3.44254238648e-06
3.30704578375e-06
3.1815669431e-06
3.06864938741e-06
2.97178804095e-06
2.884328245e-06
2.80956722822e-06
2.75027075399e-06
2.70044636068e-06
2.6624042234e-06
2.63633503443e-06
2.62026913024e-06
0.767082
0.767082
0.767082
0.767082
0.767082
0.767082
0.767082
0.767082
0.767082
0.767082
0.767082
0.767082
0.767082
0.767082
0.767082
0.767082
0.767082
0.767082
0.767082
0.767082
0.767082
0.767082
0.767082
0.767082
0.767082
0.767082
0.767082
0.767082
0.767082
0.767082
0.767082
0.767082
0.767082
0.767082
0.767082
0.767082
0.767082
0.767082
0.767082
0.767082
0.767082
0.767082
0.767082
0.754396940596
0.178874587536
8.28527353666e-05
1.71737280254e-05
8.84687161966e-06
6.81160111804e-06
6.14810951318e-06
5.80160543238e-06
5.52137036772e-06
5.26315332905e-06
5.01719006731e-06
4.78771646718e-06
4.56677126347e-06
4.36311707543e-06
4.16983197062e-06
3.99457900916e-06
3.83101365231e-06
3.68685110954e-06
3.55451352498e-06
3.43697020924e-06
3.33825669192e-06
3.25089501736e-06
3.17810068412e-06
3.11965662708e-06
3.07832907673e-06
3.04704749891e-06
3.02820586621e-06
0.767082
0.767082
0.767082
0.767082
0.767082
0.767082
0.767082
0.767082
0.767082
0.767082
0.767082
0.767082
0.767082
0.767082
0.767082
0.767082
0.767082
0.767082
0.767082
0.767082
0.767082
0.767082
0.767082
0.767082
0.767082
0.767082
0.767082
0.767082
0.767082
0.767082
0.767082
0.767082
0.767082
0.767082
0.767082
0.767082
0.767082
0.767082
0.767082
0.767082
0.767082
0.767082
0.767082
0.7544293816
0.219135147502
9.95850064749e-05
1.97320763023e-05
1.03111058067e-05
8.00075688167e-06
7.24400475814e-06
6.81160843358e-06
6.47134552363e-06
6.15961587409e-06
5.861200933e-06
5.58450434827e-06
5.32420799027e-06
5.07674764939e-06
4.85020033575e-06
4.63817087071e-06
4.44927334861e-06
4.2747370765e-06
4.11913852876e-06
3.98518265236e-06
3.8655690732e-06
3.76299145e-06
3.68160172688e-06
3.61301636189e-06
3.56046061593e-06
3.52342892397e-06
3.50096499687e-06
0.767082
0.767082
0.767082
0.767082
0.767082
0.767082
0.767082
0.767082
0.767082
0.767082
0.767082
0.767082
0.767082
0.767082
0.767082
0.767082
0.767082
0.767082
0.767082
0.767082
0.767082
0.767082
0.767082
0.767082
0.767082
0.767082
0.767082
0.767082
0.767082
0.767082
0.767082
0.767082
0.767082
0.767082
0.767082
0.767082
0.767082
0.767082
0.767082
0.767082
0.767082
0.767082
0.767082
0.754669323303
0.252545839286
0.000117643046187
2.34225432048e-05
1.19837742631e-05
9.46296621184e-06
8.53097171439e-06
8.01523908033e-06
7.60411497073e-06
7.2189715292e-06
6.86303547668e-06
6.52368375278e-06
6.21062208078e-06
5.92009859295e-06
5.64625364924e-06
5.398362035e-06
5.16993303397e-06
4.96808253728e-06
4.78425789189e-06
4.62286308509e-06
4.48571932424e-06
4.36565630259e-06
4.26527871066e-06
4.18859984235e-06
4.12678464612e-06
4.08259698406e-06
4.05630541293e-06
0.767082
0.767082
0.767082
0.767082
0.767082
0.767082
0.767082
0.767082
0.767082
0.767082
0.767082
0.767082
0.767082
0.767082
0.767082
0.767082
0.767082
0.767082
0.767082
0.767082
0.767082
0.767082
0.767082
0.767082
0.767082
0.767082
0.767082
0.767082
0.767082
0.767082
0.767082
0.767082
0.767082
0.767082
0.767082
0.767082
0.767082
0.767082
0.767082
0.767082
0.767082
0.767082
0.767082
0.754967768432
0.283989839461
0.000140104478147
2.70545675616e-05
1.42332935194e-05
1.10903598966e-05
1.00543914184e-05
9.44894113481e-06
8.9482977569e-06
8.48235671486e-06
8.04123171417e-06
7.63655969058e-06
7.25459368418e-06
6.90547597119e-06
6.58346855714e-06
6.2858303666e-06
6.02056635963e-06
5.77605791562e-06
5.5642944877e-06
5.37289981826e-06
5.20804402766e-06
5.07106669276e-06
4.95323517452e-06
4.85787250119e-06
4.78440163858e-06
4.73643515798e-06
4.70445689762e-06
0.767082
0.767082
0.767082
0.767082
0.767082
0.767082
0.767082
0.767082
0.767082
0.767082
0.767082
0.767082
0.767082
0.767082
0.767082
0.767082
0.767082
0.767082
0.767082
0.767082
0.767082
0.767082
0.767082
0.767082
0.767082
0.767082
0.767082
0.767082
0.767082
0.767082
0.767082
0.767082
0.767082
0.767082
0.767082
0.767082
0.767082
0.767082
0.767082
0.767082
0.767082
0.767082
0.767082
0.755357953623
0.317622027452
0.000167382675559
3.219338989e-05
1.65397370472e-05
1.30718189211e-05
1.18776625675e-05
1.11368146729e-05
1.05243377189e-05
9.9595721293e-06
9.43577988518e-06
8.94148486304e-06
8.48799543261e-06
8.06960060566e-06
7.67955642613e-06
7.32903561474e-06
7.00758511667e-06
6.72603932336e-06
6.47014801132e-06
6.25078332254e-06
6.05519158932e-06
5.88924673914e-06
5.75507151324e-06
5.64301996316e-06
5.55625234064e-06
5.49407773148e-06
5.46079350043e-06
0.767082
0.767082
0.767082
0.767082
0.767082
0.767082
0.767082
0.767082
0.767082
0.767082
0.767082
0.767082
0.767082
0.767082
0.767082
0.767082
0.767082
0.767082
0.767082
0.767082
0.767082
0.767082
0.767082
0.767082
0.767082
0.767082
0.767082
0.767082
0.767082
0.767082
0.767082
0.767082
0.767082
0.767082
0.767082
0.767082
0.767082
0.767082
0.767082
0.767082
0.767082
0.767082
0.767082
0.755726032026
0.340997471951
0.000199912737189
3.71860488557e-05
1.93989871585e-05
1.5592254346e-05
1.40684650884e-05
1.31671273138e-05
1.2406006117e-05
1.17096185056e-05
1.10752776283e-05
1.04859731321e-05
9.93526528723e-06
9.43287258459e-06
8.97446577921e-06
8.55056534181e-06
8.17594050251e-06
7.83417219664e-06
7.53775914548e-06
7.2720212643e-06
7.04804025467e-06
6.85129357754e-06
6.69302189817e-06
6.55975015753e-06
6.45652448784e-06
6.38163140389e-06
6.34085282621e-06
0.767082
0.767082
0.767082
0.767082
0.767082
0.767082
0.767082
0.767082
0.767082
0.767082
0.767082
0.767082
0.767082
0.767082
0.767082
0.767082
0.767082
0.767082
0.767082
0.767082
0.767082
0.767082
0.767082
0.767082
0.767082
0.767082
0.767082
0.767082
0.767082
0.767082
0.767082
0.767082
0.767082
0.767082
0.767082
0.767082
0.767082
0.767082
0.767082
0.767082
0.767082
0.767082
0.767082
0.75600594598
0.360682426875
0.000233688886132
4.28102864049e-05
2.29873020405e-05
1.84556656048e-05
1.66343590397e-05
1.55483321428e-05
1.46417238911e-05
1.38037832898e-05
1.30292008143e-05
1.23040383656e-05
1.1643058231e-05
1.10400838153e-05
1.04834985129e-05
9.98825530724e-06
9.5431272542e-06
9.13826508281e-06
8.78779598946e-06
8.47424358043e-06
8.20987574726e-06
7.97779338582e-06
7.78361798576e-06
7.63312297557e-06
7.50976723056e-06
7.41945489177e-06
7.36216033583e-06
0.767082
0.767082
0.767082
0.767082
0.767082
0.767082
0.767082
0.767082
0.767082
0.767082
0.767082
0.767082
0.767082
0.767082
0.767082
0.767082
0.767082
0.767082
0.767082
0.767082
0.767082
0.767082
0.767082
0.767082
0.767082
0.767082
0.767082
0.767082
0.767082
0.767082
0.767082
0.767082
0.767082
0.767082
0.767082
0.767082
0.767082
0.767082
0.767082
0.767082
0.767082
0.767082
0.767082
0.756324075028
0.376649037052
0.000281664660059
5.00117318975e-05
2.69891978798e-05
2.17877976074e-05
1.97884618362e-05
1.84207920131e-05
1.7300876347e-05
1.6271415223e-05
1.53259715939e-05
1.44592462487e-05
1.36622325612e-05
1.29269479499e-05
1.22673015606e-05
1.16745046249e-05
1.11342090063e-05
1.06629959513e-05
1.02475474223e-05
9.87750750104e-06
9.55758454984e-06
9.29241268987e-06
9.06362131948e-06
8.88361964666e-06
8.73619162577e-06
8.62788550524e-06
8.55736961518e-06
0.767082
0.767082
0.767082
0.767082
0.767082
0.767082
0.767082
0.767082
0.767082
0.767082
0.767082
0.767082
0.767082
0.767082
0.767082
0.767082
0.767082
0.767082
0.767082
0.767082
0.767082
0.767082
0.767082
0.767082
0.767082
0.767082
0.767082
0.767082
0.767082
0.767082
0.767082
0.767082
0.767082
0.767082
0.767082
0.767082
0.767082
0.767082
0.767082
0.767082
0.767082
0.767082
0.767082
0.756403795473
0.388413810013
0.000331025559971
5.80352066496e-05
3.17538689445e-05
2.59341981884e-05
2.34456246656e-05
2.18437813381e-05
2.04674711012e-05
1.92047062876e-05
1.80496172292e-05
1.69965810507e-05
1.60236771075e-05
1.5151641822e-05
1.43658893217e-05
1.36558690268e-05
1.30167600849e-05
1.24569658716e-05
1.19522417414e-05
1.15230225588e-05
1.11464354254e-05
1.08323108976e-05
1.05612784718e-05
1.03489577789e-05
1.01711210801e-05
1.00396498822e-05
9.95326453897e-06
0.767082
0.767082
0.767082
0.767082
0.767082
0.767082
0.767082
0.767082
0.767082
0.767082
0.767082
0.767082
0.767082
0.767082
0.767082
0.767082
0.767082
0.767082
0.767082
0.767082
0.767082
0.767082
0.767082
0.767082
0.767082
0.767082
0.767082
0.767082
0.767082
0.767082
0.767082
0.767082
0.767082
0.767082
0.767082
0.767082
0.767082
0.767082
0.767082
0.767082
0.767082
0.767082
0.767082
0.756370136539
0.394530080069
0.000392225292614
6.8080771565e-05
3.77062584727e-05
3.08442014767e-05
2.7986455071e-05
2.59667032755e-05
2.42414806032e-05
2.26804851731e-05
2.12629626113e-05
1.99787521384e-05
1.8819766465e-05
1.77695430547e-05
1.68259982431e-05
1.59734614552e-05
1.52199058531e-05
1.45580191683e-05
1.39659302728e-05
1.3458651508e-05
1.30090817509e-05
1.26368885857e-05
1.23143753448e-05
1.2059465171e-05
1.18465572283e-05
1.16837419505e-05
1.15858599062e-05
0.767082
0.767082
0.767082
0.767082
0.767082
0.767082
0.767082
0.767082
0.767082
0.767082
0.767082
0.767082
0.767082
0.767082
0.767082
0.767082
0.767082
0.767082
0.767082
0.767082
0.767082
0.767082
0.767082
0.767082
0.767082
0.767082
0.767082
0.767082
0.767082
0.767082
0.767082
0.767082
0.767082
0.767082
0.767082
0.767082
0.767082
0.767082
0.767082
0.767082
0.767082
0.767082
0.767082
0.75613775133
0.397601592793
0.000463073711106
7.88420724842e-05
4.4909323672e-05
3.67330076545e-05
3.31455273866e-05
3.07890472598e-05
2.87139516621e-05
2.68209918911e-05
2.50980156346e-05
2.35341506887e-05
2.2130022552e-05
2.08653922046e-05
1.97312115215e-05
1.87107138291e-05
1.78189681242e-05
1.7025891699e-05
1.63169324397e-05
1.57162589167e-05
1.51847268796e-05
1.47424216918e-05
1.43599674208e-05
1.40541010035e-05
1.38026951787e-05
1.36035481922e-05
1.34815104623e-05
0.767082
0.767082
0.767082
0.767082
0.767082
0.767082
0.767082
0.767082
0.767082
0.767082
0.767082
0.767082
0.767082
0.767082
0.767082
0.767082
0.767082
0.767082
0.767082
0.767082
0.767082
0.767082
0.767082
0.767082
0.767082
0.767082
0.767082
0.767082
0.767082
0.767082
0.767082
0.767082
0.767082
0.767082
0.767082
0.767082
0.767082
0.767082
0.767082
0.767082
0.767082
0.767082
0.767082
0.75578091061
0.395300471291
0.000517773428818
9.01500929705e-05
5.35635145652e-05
4.35868967542e-05
3.96948911697e-05
3.66904244029e-05
3.4098539064e-05
3.17618372388e-05
2.96587539171e-05
2.77603240153e-05
2.6049608629e-05
2.45259934172e-05
2.31717608029e-05
2.19463682936e-05
2.08774361806e-05
1.99369740449e-05
1.91030082296e-05
1.83813598843e-05
1.77483801732e-05
1.72220215146e-05
1.67630791289e-05
1.64009456663e-05
1.60903834157e-05
1.58655685058e-05
1.56910701437e-05
0.767082
0.767082
0.767082
0.767082
0.767082
0.767082
0.767082
0.767082
0.767082
0.767082
0.767082
0.767082
0.767082
0.767082
0.767082
0.767082
0.767082
0.767082
0.767082
0.767082
0.767082
0.767082
0.767082
0.767082
0.767082
0.767082
0.767082
0.767082
0.767082
0.767082
0.767082
0.767082
0.767082
0.767082
0.767082
0.767082
0.767082
0.767082
0.767082
0.767082
0.767082
0.767082
0.767082
0.755392909265
0.390559519704
0.000603850914024
0.000105573737126
6.3177165967e-05
5.27319221454e-05
4.74937988494e-05