/*--------------------------------*- C++ -*----------------------------------*\
| =========                 |                                                 |
| \\      /  F ield         | foam-extend: Open Source CFD                    |
|  \\    /   O peration     | Version:     4.1                                |
|   \\  /    A nd           | Web:         http://www.foam-extend.org         |
|    \\/     M anipulation  |                                                 |
\*---------------------------------------------------------------------------*/
FoamFile
{
    version     2.0;
    format      ascii;
    class       volScalarField;
    location    "0.0001";
    object      N2Plus;
}
// * * * * * * * * * * * * * * * * * * * * * * * * * * * * * * * * * * * * * //

dimensions      [0 0 0 0 0 0 0];

internalField   nonuniform List<scalar> 
8400
(
7.21720705969e-185
7.21720705974e-185
7.21720705979e-185
7.21720705984e-185
7.2172070599e-185
7.21720705995e-185
7.21720705999e-185
7.21720706004e-185
7.21720706009e-185
7.21720706014e-185
7.21720706019e-185
7.21720706023e-185
7.21720706028e-185
7.21720706032e-185
7.21720706037e-185
7.21720706041e-185
7.21720706046e-185
7.2172070605e-185
7.21720706054e-185
7.21720706059e-185
7.21720706063e-185
7.21720706067e-185
7.21720706071e-185
7.21720706075e-185
7.2172070608e-185
7.21720706084e-185
7.21720706088e-185
7.21720706092e-185
7.21720706096e-185
7.217207061e-185
7.21720706104e-185
7.21720706108e-185
7.21720706112e-185
7.21720706116e-185
7.2172070612e-185
7.21720706124e-185
7.21720706129e-185
7.21720706218e-185
7.21720713069e-185
7.21721262381e-185
7.21760781362e-185
7.24745623344e-185
7.7386244932e-185
2.67863590372e-20
7.10621024007e-06
1.7597393502e-05
9.9844634361e-06
6.72323244643e-06
5.62559224271e-06
5.24398153354e-06
5.08558583481e-06
4.98086415387e-06
4.89207726666e-06
4.80083818835e-06
4.70980937446e-06
4.61859486188e-06
4.53017089317e-06
4.43951864486e-06
4.34981816789e-06
4.26257712089e-06
4.18140769906e-06
4.10203444437e-06
4.02786764903e-06
3.96046986614e-06
3.90072919451e-06
3.85259858295e-06
3.81073173025e-06
3.77890410933e-06
3.7573990245e-06
3.7415888822e-06
7.21720705435e-185
7.21720705437e-185
7.21720705439e-185
7.21720705441e-185
7.21720705443e-185
7.21720705445e-185
7.21720705447e-185
7.21720705449e-185
7.2172070545e-185
7.21720705452e-185
7.21720705454e-185
7.21720705456e-185
7.21720705458e-185
7.21720705459e-185
7.21720705461e-185
7.21720705463e-185
7.21720705464e-185
7.21720705466e-185
7.21720705468e-185
7.2172070547e-185
7.21720705471e-185
7.21720705473e-185
7.21720705475e-185
7.21720705476e-185
7.21720705478e-185
7.2172070548e-185
7.21720705481e-185
7.21720705483e-185
7.21720705485e-185
7.21720705486e-185
7.21720705488e-185
7.2172070549e-185
7.21720705492e-185
7.21720705493e-185
7.21720705495e-185
7.21720705497e-185
7.21720705504e-185
7.21720705995e-185
7.21720745958e-185
7.21723923972e-185
7.21982028861e-185
7.31127211424e-185
6.34264833753e-71
4.25895887736e-10
2.53492973439e-05
1.32877510484e-05
7.93067501772e-06
5.77211747769e-06
5.16253503256e-06
4.9529862674e-06
4.85484738329e-06
4.78028139005e-06
4.70613518067e-06
4.63020282451e-06
4.55256898982e-06
4.47297617371e-06
4.39155249048e-06
4.3126699756e-06
4.23142623203e-06
4.15223610945e-06
4.07594596036e-06
4.00397462685e-06
3.93722142628e-06
3.8764639671e-06
3.82578495369e-06
3.779906762e-06
3.74238958164e-06
3.71381891714e-06
3.69457680458e-06
3.68168773615e-06
7.21720705297e-185
7.21720705298e-185
7.21720705299e-185
7.217207053e-185
7.21720705301e-185
7.21720705302e-185
7.21720705304e-185
7.21720705305e-185
7.21720705306e-185
7.21720705307e-185
7.21720705308e-185
7.21720705309e-185
7.2172070531e-185
7.21720705311e-185
7.21720705312e-185
7.21720705313e-185
7.21720705314e-185
7.21720705315e-185
7.21720705316e-185
7.21720705317e-185
7.21720705318e-185
7.21720705319e-185
7.2172070532e-185
7.21720705321e-185
7.21720705322e-185
7.21720705323e-185
7.21720705324e-185
7.21720705325e-185
7.21720705326e-185
7.21720705327e-185
7.21720705328e-185
7.21720705329e-185
7.2172070533e-185
7.21720705331e-185
7.21720705332e-185
7.21720705333e-185
7.2172070535e-185
7.2172070674e-185
7.21720823852e-185
7.21729760764e-185
7.22456631134e-185
7.41065144054e-185
7.0132507904e-36
4.15030953358e-07
2.1117517952e-05
1.14871275829e-05
7.092745441e-06
5.50690080007e-06
5.0364624854e-06
4.87227139642e-06
4.8017038441e-06
4.7352079883e-06
4.66542271251e-06
4.5932970124e-06
4.51953719145e-06
4.44348464602e-06
4.36617535757e-06
4.28778558984e-06
4.21335688338e-06
4.13806466712e-06
4.06575217417e-06
3.99782702059e-06
3.93481457584e-06
3.8776207663e-06
3.83016137504e-06
3.78720026662e-06
3.75209765773e-06
3.72548535224e-06
3.70763754628e-06
3.69608932185e-06
7.21720705239e-185
7.21720705239e-185
7.2172070524e-185
7.21720705241e-185
7.21720705242e-185
7.21720705242e-185
7.21720705243e-185
7.21720705244e-185
7.21720705245e-185
7.21720705245e-185
7.21720705246e-185
7.21720705247e-185
7.21720705248e-185
7.21720705248e-185
7.21720705249e-185
7.2172070525e-185
7.2172070525e-185
7.21720705251e-185
7.21720705252e-185
7.21720705253e-185
7.21720705253e-185
7.21720705254e-185
7.21720705255e-185
7.21720705255e-185
7.21720705256e-185
7.21720705257e-185
7.21720705257e-185
7.21720705258e-185
7.21720705259e-185
7.2172070526e-185
7.2172070526e-185
7.21720705261e-185
7.21720705262e-185
7.21720705262e-185
7.21720705263e-185
7.21720705264e-185
7.2172070529e-185
7.21720707454e-185
7.21720889217e-185
7.21734766923e-185
7.22867783539e-185
7.48439658008e-185
1.43099416655e-32
1.36887117999e-06
1.96730096131e-05
1.07075956019e-05
6.84993749001e-06
5.50462561372e-06
5.05674521893e-06
4.91887838335e-06
4.84611304069e-06
4.77832868741e-06
4.7079279629e-06
4.63520892624e-06
4.56100336104e-06
4.48476708784e-06
4.40697657119e-06
4.32903736223e-06
4.25504080694e-06
4.18047625577e-06
4.10895030406e-06
4.04146584185e-06
3.97911934656e-06
3.92283928478e-06
3.87623258686e-06
3.83405051061e-06
3.79966237013e-06
3.7736376235e-06
3.7562157195e-06
3.74513212731e-06
7.21720705207e-185
7.21720705207e-185
7.21720705208e-185
7.21720705209e-185
7.21720705209e-185
7.2172070521e-185
7.2172070521e-185
7.21720705211e-185
7.21720705212e-185
7.21720705212e-185
7.21720705213e-185
7.21720705213e-185
7.21720705214e-185
7.21720705214e-185
7.21720705215e-185
7.21720705215e-185
7.21720705216e-185
7.21720705217e-185
7.21720705217e-185
7.21720705218e-185
7.21720705218e-185
7.21720705219e-185
7.21720705219e-185
7.2172070522e-185
7.2172070522e-185
7.21720705221e-185
7.21720705221e-185
7.21720705222e-185
7.21720705223e-185
7.21720705223e-185
7.21720705224e-185
7.21720705224e-185
7.21720705225e-185
7.21720705225e-185
7.21720705226e-185
7.21720705227e-185
7.21720705257e-185
7.21720707775e-185
7.21720919802e-185
7.21737128631e-185
7.23064315976e-185
7.5166515609e-185
7.40656800731e-28
1.93294769436e-06
1.92845458311e-05
1.06452298733e-05
6.88285481942e-06
5.51918564182e-06
5.14809992046e-06
5.02631033007e-06
4.94591067591e-06
4.87656743671e-06
4.80296150264e-06
4.72839485921e-06
4.65179190775e-06
4.5738343254e-06
4.49445514978e-06
4.41780681965e-06
4.33975689146e-06
4.26397057657e-06
4.19160692542e-06
4.12330276221e-06
4.06011135698e-06
4.00335257868e-06
3.95632900018e-06
3.9138362663e-06
3.87909503318e-06
3.85258906848e-06
3.83483787015e-06
3.82354459274e-06
7.21720705187e-185
7.21720705187e-185
7.21720705188e-185
7.21720705188e-185
7.21720705189e-185
7.21720705189e-185
7.2172070519e-185
7.2172070519e-185
7.21720705191e-185
7.21720705191e-185
7.21720705192e-185
7.21720705192e-185
7.21720705192e-185
7.21720705193e-185
7.21720705193e-185
7.21720705194e-185
7.21720705194e-185
7.21720705195e-185
7.21720705195e-185
7.21720705196e-185
7.21720705196e-185
7.21720705197e-185
7.21720705197e-185
7.21720705197e-185
7.21720705198e-185
7.21720705198e-185
7.21720705199e-185
7.21720705199e-185
7.217207052e-185
7.217207052e-185
7.21720705201e-185
7.21720705201e-185
7.21720705202e-185
7.21720705202e-185
7.21720705202e-185
7.21720705203e-185
7.21720705234e-185
7.21720707787e-185
7.21720922776e-185
7.2173732562e-185
7.23077478336e-185
7.51969486044e-185
1.01292085165e-27
1.9792664046e-06
1.92824159429e-05
1.07552464442e-05
6.92173120454e-06
5.7141255364e-06
5.3014727832e-06
5.16740291856e-06
5.08753308817e-06
5.01503635424e-06
4.93938864647e-06
4.86224904798e-06
4.78320566283e-06
4.70247329689e-06
4.62005183273e-06
4.54092236011e-06
4.46009002877e-06
4.38205191601e-06
4.30750580174e-06
4.23714733751e-06
4.1722551161e-06
4.11669154082e-06
4.0655310712e-06
4.0219284211e-06
3.98628922409e-06
3.95930916874e-06
3.94109628842e-06
3.92949936197e-06
7.21720705173e-185
7.21720705173e-185
7.21720705174e-185
7.21720705174e-185
7.21720705175e-185
7.21720705175e-185
7.21720705175e-185
7.21720705176e-185
7.21720705176e-185
7.21720705177e-185
7.21720705177e-185
7.21720705177e-185
7.21720705178e-185
7.21720705178e-185
7.21720705179e-185
7.21720705179e-185
7.21720705179e-185
7.2172070518e-185
7.2172070518e-185
7.21720705181e-185
7.21720705181e-185
7.21720705181e-185
7.21720705182e-185
7.21720705182e-185
7.21720705182e-185
7.21720705183e-185
7.21720705183e-185
7.21720705184e-185
7.21720705184e-185
7.21720705184e-185
7.21720705185e-185
7.21720705185e-185
7.21720705186e-185
7.21720705186e-185
7.21720705186e-185
7.21720705187e-185
7.21720705216e-185
7.21720707609e-185
7.21720909486e-185
7.21736359982e-185
7.23006362489e-185
7.50844356207e-185
2.59255241235e-28
1.74381760889e-06
1.95591260601e-05
1.09124251483e-05
7.2116113772e-06
5.84478045809e-06
5.49967969628e-06
5.3542256151e-06
5.26919258111e-06
5.19367770072e-06
5.11313029311e-06
5.03110229695e-06
4.94782438618e-06
4.8631073665e-06
4.7774049995e-06
4.69509694044e-06
4.61105640656e-06
4.53003376025e-06
4.45231392606e-06
4.37937272213e-06
4.31207722502e-06
4.25451046814e-06
4.20149927933e-06
4.15652802844e-06
4.12000981934e-06
4.09204473266e-06
4.07315501346e-06
4.0610345797e-06
7.21720705163e-185
7.21720705163e-185
7.21720705164e-185
7.21720705164e-185
7.21720705164e-185
7.21720705165e-185
7.21720705165e-185
7.21720705165e-185
7.21720705166e-185
7.21720705166e-185
7.21720705166e-185
7.21720705167e-185
7.21720705167e-185
7.21720705167e-185
7.21720705168e-185
7.21720705168e-185
7.21720705169e-185
7.21720705169e-185
7.21720705169e-185
7.2172070517e-185
7.2172070517e-185
7.2172070517e-185
7.21720705171e-185
7.21720705171e-185
7.21720705171e-185
7.21720705172e-185
7.21720705172e-185
7.21720705172e-185
7.21720705173e-185
7.21720705173e-185
7.21720705173e-185
7.21720705174e-185
7.21720705174e-185
7.21720705174e-185
7.21720705175e-185
7.21720705175e-185
7.21720705201e-185
7.21720707373e-185
7.21720891265e-185
7.21735020258e-185
7.22891189399e-185
7.48907119182e-185
1.64150236795e-32
1.37425066976e-06
1.99657513299e-05
1.12728740727e-05
7.42057791436e-06
6.12809828246e-06
5.71303642945e-06
5.57633080712e-06
5.48841351191e-06
5.4068207964e-06
5.32073730387e-06
5.23390410558e-06
5.14593011042e-06
5.05661932474e-06
4.96660384206e-06
4.88012089511e-06
4.79220470935e-06
4.70725550124e-06
4.62593110072e-06
4.54972858551e-06
4.48249116424e-06
4.41928264312e-06
4.36407180366e-06
4.31740758612e-06
4.27940514521e-06
4.25044169553e-06
4.23063948528e-06
4.21792809485e-06
7.21720705155e-185
7.21720705156e-185
7.21720705156e-185
7.21720705156e-185
7.21720705157e-185
7.21720705157e-185
7.21720705157e-185
7.21720705157e-185
7.21720705158e-185
7.21720705158e-185
7.21720705158e-185
7.21720705159e-185
7.21720705159e-185
7.21720705159e-185
7.2172070516e-185
7.2172070516e-185
7.2172070516e-185
7.21720705161e-185
7.21720705161e-185
7.21720705161e-185
7.21720705161e-185
7.21720705162e-185
7.21720705162e-185
7.21720705162e-185
7.21720705163e-185
7.21720705163e-185
7.21720705163e-185
7.21720705164e-185
7.21720705164e-185
7.21720705164e-185
7.21720705164e-185
7.21720705165e-185
7.21720705165e-185
7.21720705165e-185
7.21720705166e-185
7.21720705166e-185
7.21720705189e-185
7.21720707098e-185
7.21720868788e-185
7.21733251823e-185
7.22741437166e-185
7.465603457e-185
6.12629540039e-33
1.01302377741e-06
2.04395136052e-05
1.16116496083e-05
7.77730805189e-06
6.37602415892e-06
5.98395496401e-06
5.84489159499e-06
5.74868644595e-06
5.65663474571e-06
5.56669745164e-06
5.47330539301e-06
5.37892388619e-06
5.28402468651e-06
5.18870871431e-06
5.09707433309e-06
5.00389295435e-06
4.91413577353e-06
4.82848440238e-06
4.7483066793e-06
4.67761885236e-06
4.61142574435e-06
4.55344120509e-06
4.50439413943e-06
4.46464450972e-06
4.43430577786e-06
4.4136164147e-06
4.40065244417e-06
7.21720705149e-185
7.2172070515e-185
7.2172070515e-185
7.2172070515e-185
7.2172070515e-185
7.21720705151e-185
7.21720705151e-185
7.21720705151e-185
7.21720705152e-185
7.21720705152e-185
7.21720705152e-185
7.21720705152e-185
7.21720705153e-185
7.21720705153e-185
7.21720705153e-185
7.21720705153e-185
7.21720705154e-185
7.21720705154e-185
7.21720705154e-185
7.21720705155e-185
7.21720705155e-185
7.21720705155e-185
7.21720705155e-185
7.21720705156e-185
7.21720705156e-185
7.21720705156e-185
7.21720705156e-185
7.21720705157e-185
7.21720705157e-185
7.21720705157e-185
7.21720705158e-185
7.21720705158e-185
7.21720705158e-185
7.21720705158e-185
7.21720705159e-185
7.21720705159e-185
7.21720705179e-185
7.21720706815e-185
7.2172084542e-185
7.21731478932e-185
7.22594036117e-185
7.44113252301e-185
1.82043858785e-35
6.95919803284e-07
2.10592641347e-05
1.2026805709e-05
8.04508072534e-06
6.73200901893e-06
6.30350472393e-06
6.14493996353e-06
6.04057634336e-06
5.94456542255e-06
5.84904141369e-06
5.74868862527e-06
5.64727988067e-06
5.54500376787e-06
5.4430901704e-06
5.34477278964e-06
5.246111665e-06
5.15094905725e-06
5.06057992909e-06
4.97901881913e-06
4.90106233106e-06
4.83123455162e-06
4.77016989301e-06
4.7183653087e-06
4.67658787888e-06
4.64474633127e-06
4.6231852959e-06
4.60992539493e-06
7.21720705144e-185
7.21720705145e-185
7.21720705145e-185
7.21720705145e-185
7.21720705145e-185
7.21720705146e-185
7.21720705146e-185
7.21720705146e-185
7.21720705146e-185
7.21720705147e-185
7.21720705147e-185
7.21720705147e-185
7.21720705147e-185
7.21720705148e-185
7.21720705148e-185
7.21720705148e-185
7.21720705148e-185
7.21720705149e-185
7.21720705149e-185
7.21720705149e-185
7.21720705149e-185
7.2172070515e-185
7.2172070515e-185
7.2172070515e-185
7.2172070515e-185
7.21720705151e-185
7.21720705151e-185
7.21720705151e-185
7.21720705152e-185
7.21720705152e-185
7.21720705152e-185
7.21720705152e-185
7.21720705153e-185
7.21720705153e-185
7.21720705153e-185
7.21720705154e-185
7.2172070517e-185
7.21720706589e-185
7.21720826621e-185
7.21730008596e-185
7.22468588367e-185
7.41731697373e-185
8.35231770749e-36
4.47419035151e-07
2.17015582017e-05
1.25291904053e-05
8.45125596174e-06
7.10595185732e-06
6.65707179886e-06
6.48963829294e-06
6.37521769021e-06
6.2691108024e-06
6.16510047398e-06
6.05693688455e-06
5.94745240267e-06
5.83836509001e-06
5.73258357281e-06
5.62454052853e-06
5.51949678559e-06
5.4183248394e-06
5.32220631268e-06
5.23583725397e-06
5.15339889289e-06
5.07970676294e-06
5.01530966333e-06
4.96064593018e-06
4.91621618853e-06
4.88242758728e-06
4.86275487808e-06
4.8455357558e-06
7.2172070514e-185
7.21720705141e-185
7.21720705141e-185
7.21720705141e-185
7.21720705141e-185
7.21720705142e-185
7.21720705142e-185
7.21720705142e-185
7.21720705142e-185
7.21720705143e-185
7.21720705143e-185
7.21720705143e-185
7.21720705143e-185
7.21720705143e-185
7.21720705144e-185
7.21720705144e-185
7.21720705144e-185
7.21720705144e-185
7.21720705145e-185
7.21720705145e-185
7.21720705145e-185
7.21720705145e-185
7.21720705146e-185
7.21720705146e-185
7.21720705146e-185
7.21720705146e-185
7.21720705147e-185
7.21720705147e-185
7.21720705147e-185
7.21720705147e-185
7.21720705147e-185
7.21720705148e-185
7.21720705148e-185
7.21720705148e-185
7.21720705148e-185
7.21720705149e-185
7.21720705163e-185
7.21720706367e-185
7.2172080853e-185
7.21728670474e-185
7.22356982517e-185
7.39476004373e-185
1.64072182663e-46
2.52253471118e-07
2.23652287677e-05
1.30712838095e-05
8.90588338219e-06
7.42028857721e-06
7.07240722869e-06
6.88325768117e-06
6.75478016063e-06
6.63536637556e-06
6.52066534722e-06
6.40304579604e-06
6.28538293609e-06
6.16765006769e-06
6.05390500608e-06
5.9384787474e-06
5.82597575836e-06
5.71783109161e-06
5.61861768717e-06
5.52322823024e-06
5.43587874391e-06
5.35756077992e-06
5.28931405597e-06
5.23137208262e-06
5.18764317413e-06
5.15171143108e-06
5.1273377836e-06
5.11274607839e-06
7.21720705137e-185
7.21720705137e-185
7.21720705137e-185
7.21720705138e-185
7.21720705138e-185
7.21720705138e-185
7.21720705138e-185
7.21720705139e-185
7.21720705139e-185
7.21720705139e-185
7.21720705139e-185
7.21720705139e-185
7.2172070514e-185
7.2172070514e-185
7.2172070514e-185
7.2172070514e-185
7.21720705141e-185
7.21720705141e-185
7.21720705141e-185
7.21720705141e-185
7.21720705141e-185
7.21720705142e-185
7.21720705142e-185
7.21720705142e-185
7.21720705142e-185
7.21720705142e-185
7.21720705143e-185
7.21720705143e-185
7.21720705143e-185
7.21720705143e-185
7.21720705144e-185
7.21720705144e-185
7.21720705144e-185
7.21720705144e-185
7.21720705145e-185
7.21720705145e-185
7.21720705157e-185
7.21720706163e-185
7.21720791589e-185
7.21727459116e-185
7.22259691239e-185
7.37382831089e-185
1.04595836806e-46
1.30190118608e-07
2.31560324405e-05
1.35991344716e-05
9.40617248821e-06
7.90173650767e-06
7.50450069704e-06
7.306795037e-06
7.17493059942e-06
7.04689863164e-06
6.92253228971e-06
6.79358613983e-06
6.66484371203e-06
6.53652322745e-06
6.41304427415e-06
6.28835255266e-06
6.16733206247e-06
6.05150374808e-06
5.94512854112e-06
5.84291074361e-06
5.74977820788e-06
5.66649869791e-06
5.59721723399e-06
5.53563759093e-06
5.48549732111e-06
5.44742847543e-06
5.42138902478e-06
5.4059080969e-06
7.21720705134e-185
7.21720705134e-185
7.21720705134e-185
7.21720705135e-185
7.21720705135e-185
7.21720705135e-185
7.21720705135e-185
7.21720705136e-185
7.21720705136e-185
7.21720705136e-185
7.21720705136e-185
7.21720705136e-185
7.21720705137e-185
7.21720705137e-185
7.21720705137e-185
7.21720705137e-185
7.21720705137e-185
7.21720705138e-185
7.21720705138e-185
7.21720705138e-185
7.21720705138e-185
7.21720705138e-185
7.21720705139e-185
7.21720705139e-185
7.21720705139e-185
7.21720705139e-185
7.2172070514e-185
7.2172070514e-185
7.2172070514e-185
7.2172070514e-185
7.2172070514e-185
7.21720705141e-185
7.21720705141e-185
7.21720705141e-185
7.21720705141e-185
7.21720705142e-185
7.21720705152e-185
7.21720705991e-185
7.21720776721e-185
7.21726331008e-185
7.22168447843e-185
7.35487743701e-185
5.42665053399e-47
4.85814563144e-08
2.41580108062e-05
1.41420276891e-05
9.91784454825e-06
8.41635712002e-06
7.9948507536e-06
7.78715919427e-06
7.63713855459e-06
7.4972033273e-06
7.36112191563e-06
7.22136209835e-06
7.0817697266e-06
6.9461427339e-06
6.80876039704e-06
6.67403259475e-06
6.54406664274e-06
6.42306438808e-06
6.30544459078e-06
6.19623697452e-06
6.09672532948e-06
6.01076362311e-06
5.93309016012e-06
5.86741811254e-06
5.81425311667e-06
5.77369276969e-06
5.74606785167e-06
5.72983203757e-06
7.21720705132e-185
7.21720705132e-185
7.21720705132e-185
7.21720705132e-185
7.21720705132e-185
7.21720705133e-185
7.21720705133e-185
7.21720705133e-185
7.21720705133e-185
7.21720705133e-185
7.21720705134e-185
7.21720705134e-185
7.21720705134e-185
7.21720705134e-185
7.21720705134e-185
7.21720705135e-185
7.21720705135e-185
7.21720705135e-185
7.21720705135e-185
7.21720705135e-185
7.21720705136e-185
7.21720705136e-185
7.21720705136e-185
7.21720705136e-185
7.21720705136e-185
7.21720705137e-185
7.21720705137e-185
7.21720705137e-185
7.21720705137e-185
7.21720705137e-185
7.21720705138e-185
7.21720705138e-185
7.21720705138e-185
7.21720705138e-185
7.21720705139e-185
7.21720705139e-185
7.21720705148e-185
7.2172070586e-185
7.21720765207e-185
7.21725462058e-185
7.2210482325e-185
7.34011381191e-185
1.21004137119e-47
1.51400615342e-08
2.50477460419e-05
1.48252853906e-05
1.04322039926e-05
8.91923730432e-06
8.51131401671e-06
8.31858570238e-06
8.15644852637e-06
8.0002403431e-06
7.84866243375e-06
7.6938059953e-06
7.54077082413e-06
7.39241864382e-06
7.24351804613e-06
7.09797590864e-06
6.96131754421e-06
6.82725584686e-06
6.7011539998e-06
6.58437909957e-06
6.48123309318e-06
6.38578594589e-06
6.3026312756e-06
6.23229889252e-06
6.17541131685e-06
6.13229140783e-06
6.10600818043e-06
6.0852161055e-06
7.2172070513e-185
7.2172070513e-185
7.2172070513e-185
7.2172070513e-185
7.2172070513e-185
7.2172070513e-185
7.21720705131e-185
7.21720705131e-185
7.21720705131e-185
7.21720705131e-185
7.21720705131e-185
7.21720705132e-185
7.21720705132e-185
7.21720705132e-185
7.21720705132e-185
7.21720705132e-185
7.21720705133e-185
7.21720705133e-185
7.21720705133e-185
7.21720705133e-185
7.21720705133e-185
7.21720705133e-185
7.21720705134e-185
7.21720705134e-185
7.21720705134e-185
7.21720705134e-185
7.21720705134e-185
7.21720705135e-185
7.21720705135e-185
7.21720705135e-185
7.21720705135e-185
7.21720705136e-185
7.21720705136e-185
7.21720705136e-185
7.21720705136e-185
7.21720705136e-185
7.21720705144e-185
7.21720705748e-185
7.21720755354e-185
7.21724697424e-185
7.22043352995e-185
7.32877675268e-185
7.57584053595e-71
2.69317982491e-09
2.62616535416e-05
1.54464420317e-05
1.10203495286e-05
9.49083998239e-06
9.12509219695e-06
8.91510448259e-06
8.72600343806e-06
8.55135810262e-06
8.38306937119e-06
8.21286865869e-06
8.04452895258e-06
7.882173719e-06
7.71988693423e-06
7.56164378799e-06
7.41356210921e-06
7.26932498625e-06
7.13362922717e-06
7.01159820455e-06
6.89705190255e-06
6.79507139505e-06
6.70585637397e-06
6.6307387193e-06
6.5733031867e-06
6.52689141923e-06
6.4949234334e-06
6.4763102368e-06
7.21720705128e-185
7.21720705128e-185
7.21720705128e-185
7.21720705128e-185
7.21720705128e-185
7.21720705129e-185
7.21720705129e-185
7.21720705129e-185
7.21720705129e-185
7.21720705129e-185
7.2172070513e-185
7.2172070513e-185
7.2172070513e-185
7.2172070513e-185
7.2172070513e-185
7.2172070513e-185
7.21720705131e-185
7.21720705131e-185
7.21720705131e-185
7.21720705131e-185
7.21720705131e-185
7.21720705132e-185
7.21720705132e-185
7.21720705132e-185
7.21720705132e-185
7.21720705132e-185
7.21720705132e-185
7.21720705133e-185
7.21720705133e-185
7.21720705133e-185
7.21720705133e-185
7.21720705133e-185
7.21720705134e-185
7.21720705134e-185
7.21720705134e-185
7.21720705134e-185
7.21720705141e-185
7.21720705656e-185
7.21720746893e-185
7.217240167e-185
7.21987870646e-185
7.31899441709e-185
6.25505974359e-71
1.81319217989e-10
2.76381725416e-05
1.61699991692e-05
1.1618683529e-05
1.0149427423e-05
9.72971356573e-06
9.53270963861e-06
9.34508246398e-06
9.15629597903e-06
8.9663576823e-06
8.77887041882e-06
8.59811566646e-06
8.41705042295e-06
8.23950913022e-06
8.07128347886e-06
7.90664011015e-06
7.75033292923e-06
7.60770958567e-06
7.47243690088e-06
7.34955254934e-06
7.23996674505e-06
7.14846911566e-06
7.0678731849e-06
7.00264698125e-06
6.95258738618e-06
6.9177489432e-06
6.89730751732e-06
7.21720705126e-185
7.21720705126e-185
7.21720705126e-185
7.21720705127e-185
7.21720705127e-185
7.21720705127e-185
7.21720705127e-185
7.21720705127e-185
7.21720705127e-185
7.21720705128e-185
7.21720705128e-185
7.21720705128e-185
7.21720705128e-185
7.21720705128e-185
7.21720705129e-185
7.21720705129e-185
7.21720705129e-185
7.21720705129e-185
7.21720705129e-185
7.21720705129e-185
7.2172070513e-185
7.2172070513e-185
7.2172070513e-185
7.2172070513e-185
7.2172070513e-185
7.21720705131e-185
7.21720705131e-185
7.21720705131e-185
7.21720705131e-185
7.21720705131e-185
7.21720705132e-185
7.21720705132e-185
7.21720705132e-185
7.21720705132e-185
7.21720705132e-185
7.21720705133e-185
7.21720705138e-185
7.21720705585e-185
7.21720740389e-185
7.21723449412e-185
7.21942420786e-185
7.31085804891e-185
5.36407238315e-71
2.47768784326e-12
2.85341899436e-05
1.68118332351e-05
1.22863691678e-05
1.07808152357e-05
1.04455649413e-05
1.02124775375e-05
1.00098446669e-05
9.80473089497e-06
9.59634569368e-06
9.39118698154e-06
9.19288859016e-06
8.99465700146e-06
8.80551008386e-06
8.61874598533e-06
8.44029971859e-06
8.2752641299e-06
8.11718499887e-06
7.97226212756e-06
7.84374561901e-06
7.72596233179e-06
7.623592577e-06
7.53714195656e-06
7.46672334935e-06
7.41274703556e-06
7.37907467416e-06
7.35713867443e-06
7.21720705125e-185
7.21720705125e-185
7.21720705125e-185
7.21720705125e-185
7.21720705125e-185
7.21720705126e-185
7.21720705126e-185
7.21720705126e-185
7.21720705126e-185
7.21720705126e-185
7.21720705126e-185
7.21720705127e-185
7.21720705127e-185
7.21720705127e-185
7.21720705127e-185
7.21720705127e-185
7.21720705127e-185
7.21720705128e-185
7.21720705128e-185
7.21720705128e-185
7.21720705128e-185
7.21720705128e-185
7.21720705128e-185
7.21720705129e-185
7.21720705129e-185
7.21720705129e-185
7.21720705129e-185
7.21720705129e-185
7.2172070513e-185
7.2172070513e-185
7.2172070513e-185
7.2172070513e-185
7.2172070513e-185
7.21720705131e-185
7.21720705131e-185
7.21720705131e-185
7.21720705136e-185
7.21720705531e-185
7.21720735943e-185
7.21723070063e-185
7.21908200529e-185
7.30414243104e-185
4.54497433904e-71
7.49062563442e-14
2.7410146353e-05
1.75699276538e-05
1.29925493403e-05
1.14719557099e-05
1.11507476458e-05
1.09638064374e-05
1.07408238035e-05
1.05078249003e-05
1.02787162359e-05
1.00570143556e-05
9.83595800997e-06
9.61907918895e-06
9.41268006096e-06
9.21006412178e-06
9.02012184068e-06
8.83751643808e-06
8.66738496122e-06
8.51453580676e-06
8.37236085385e-06
8.24617552313e-06
8.13613916996e-06
8.04740551541e-06
7.97160116161e-06
7.91338153155e-06
7.8726279722e-06
7.84930684734e-06
7.21720705123e-185
7.21720705124e-185
7.21720705124e-185
7.21720705124e-185
7.21720705124e-185
7.21720705124e-185
7.21720705124e-185
7.21720705125e-185
7.21720705125e-185
7.21720705125e-185
7.21720705125e-185
7.21720705125e-185
7.21720705125e-185
7.21720705126e-185
7.21720705126e-185
7.21720705126e-185
7.21720705126e-185
7.21720705126e-185
7.21720705126e-185
7.21720705127e-185
7.21720705127e-185
7.21720705127e-185
7.21720705127e-185
7.21720705127e-185
7.21720705127e-185
7.21720705128e-185
7.21720705128e-185
7.21720705128e-185
7.21720705128e-185
7.21720705128e-185
7.21720705129e-185
7.21720705129e-185
7.21720705129e-185
7.21720705129e-185
7.21720705129e-185
7.2172070513e-185
7.21720705134e-185
7.21720705481e-185
7.21720732107e-185
7.21722737993e-185
7.21877780101e-185
7.2978696489e-185
3.76082892565e-71
6.6784921962e-15
2.44196608341e-05
1.8277057898e-05
1.37089477857e-05
1.22306685226e-05
1.19470630426e-05
1.17622975371e-05
1.15188396279e-05
1.12653515815e-05
1.10136700721e-05
1.07699609254e-05
1.05273781243e-05
1.02947204849e-05
1.00652517076e-05
9.8449791623e-06
9.63943671694e-06
9.44182088397e-06
9.26228862662e-06
9.09349594766e-06
8.94055842321e-06
8.80908513774e-06
8.69088666952e-06
8.59097057498e-06
8.50962476492e-06
8.44679857573e-06
8.40654550436e-06
8.38023687173e-06
7.21720705122e-185
7.21720705122e-185
7.21720705123e-185
7.21720705123e-185
7.21720705123e-185
7.21720705123e-185
7.21720705123e-185
7.21720705123e-185
7.21720705124e-185
7.21720705124e-185
7.21720705124e-185
7.21720705124e-185
7.21720705124e-185
7.21720705124e-185
7.21720705125e-185
7.21720705125e-185
7.21720705125e-185
7.21720705125e-185
7.21720705125e-185
7.21720705125e-185
7.21720705126e-185
7.21720705126e-185
7.21720705126e-185
7.21720705126e-185
7.21720705126e-185
7.21720705126e-185
7.21720705127e-185
7.21720705127e-185
7.21720705127e-185
7.21720705127e-185
7.21720705127e-185
7.21720705128e-185
7.21720705128e-185
7.21720705128e-185
7.21720705128e-185
7.21720705129e-185
7.21720705133e-185
7.2172070544e-185
7.21720729028e-185
7.21722487572e-185
7.21849467581e-185
7.29249958673e-185
3.23509387141e-71
1.2288561732e-15
2.12801949789e-05
1.89487847849e-05
1.44707778984e-05
1.29944595423e-05
1.28433203423e-05
1.26625387824e-05
1.23766259792e-05
1.20867262403e-05
1.18065298471e-05
1.15363173136e-05
1.12694385037e-05
1.10144000885e-05
1.07641988293e-05
1.05288888478e-05
1.03019161619e-05
1.00925924502e-05
9.89437025088e-06
9.71233565025e-06
9.55276332038e-06
9.40671325274e-06
9.27972306864e-06
9.1767347353e-06
9.08901169617e-06
9.02080475063e-06
8.97263974243e-06
8.94353727584e-06
7.21720705121e-185
7.21720705121e-185
7.21720705122e-185
7.21720705122e-185
7.21720705122e-185
7.21720705122e-185
7.21720705122e-185
7.21720705122e-185
7.21720705122e-185
7.21720705123e-185
7.21720705123e-185
7.21720705123e-185
7.21720705123e-185
7.21720705123e-185
7.21720705123e-185
7.21720705124e-185
7.21720705124e-185
7.21720705124e-185
7.21720705124e-185
7.21720705124e-185
7.21720705124e-185
7.21720705125e-185
7.21720705125e-185
7.21720705125e-185
7.21720705125e-185
7.21720705125e-185
7.21720705126e-185
7.21720705126e-185
7.21720705126e-185
7.21720705126e-185
7.21720705126e-185
7.21720705127e-185
7.21720705127e-185
7.21720705127e-185
7.21720705127e-185
7.21720705127e-185
7.21720705131e-185
7.21720705409e-185
7.21720726694e-185
7.21722325762e-185
7.21831096801e-185
7.2875292782e-185
2.36585941517e-71
3.4371469718e-16
1.81834268214e-05
1.96945036143e-05
1.5222542241e-05
1.39264583562e-05
1.37311721225e-05
1.35704814421e-05
1.32712412829e-05
1.29542078323e-05
1.26498517153e-05
1.23514291745e-05
1.20647284752e-05
1.17820794287e-05
1.15146744203e-05
1.12551553683e-05
1.10134875368e-05
1.07826425835e-05
1.05735598276e-05
1.03779114561e-05
1.02008934387e-05
1.00489323878e-05
9.91252043124e-06
9.79676945742e-06
9.70201286866e-06
9.63311432529e-06
9.58025617144e-06
9.54840713401e-06
7.2172070512e-185
7.2172070512e-185
7.21720705121e-185
7.21720705121e-185
7.21720705121e-185
7.21720705121e-185
7.21720705121e-185
7.21720705121e-185
7.21720705121e-185
7.21720705122e-185
7.21720705122e-185
7.21720705122e-185
7.21720705122e-185
7.21720705122e-185
7.21720705122e-185
7.21720705123e-185
7.21720705123e-185
7.21720705123e-185
7.21720705123e-185
7.21720705123e-185
7.21720705123e-185
7.21720705124e-185
7.21720705124e-185
7.21720705124e-185
7.21720705124e-185
7.21720705124e-185
7.21720705125e-185
7.21720705125e-185
7.21720705125e-185
7.21720705125e-185
7.21720705125e-185
7.21720705126e-185
7.21720705126e-185
7.21720705126e-185
7.21720705126e-185