/*--------------------------------*- C++ -*----------------------------------*\
| =========                 |                                                 |
| \\      /  F ield         | foam-extend: Open Source CFD                    |
|  \\    /   O peration     | Version:     4.1                                |
|   \\  /    A nd           | Web:         http://www.foam-extend.org         |
|    \\/     M anipulation  |                                                 |
\*---------------------------------------------------------------------------*/
FoamFile
{
    version     2.0;
    format      ascii;
    class       volScalarField;
    location    "0.0001";
    object      NO;
}
// * * * * * * * * * * * * * * * * * * * * * * * * * * * * * * * * * * * * * //

dimensions      [0 0 0 0 0 0 0];

internalField   nonuniform List<scalar> 
8400
(
2.1952627545e-21
2.19526275451e-21
2.19526275451e-21
2.19526275452e-21
2.19526275452e-21
2.19526275453e-21
2.19526275454e-21
2.19526275454e-21
2.19526275455e-21
2.19526275455e-21
2.19526275456e-21
2.19526275457e-21
2.19526275457e-21
2.19526275458e-21
2.19526275458e-21
2.19526275459e-21
2.19526275459e-21
2.1952627546e-21
2.1952627546e-21
2.19526275461e-21
2.19526275461e-21
2.19526275462e-21
2.19526275462e-21
2.19526275463e-21
2.19526275463e-21
2.19526275464e-21
2.19526275464e-21
2.19526275465e-21
2.19526275465e-21
2.19526275466e-21
2.19526275466e-21
2.19526275467e-21
2.19526275467e-21
2.19526275468e-21
2.19526275468e-21
2.19526275469e-21
2.19526275469e-21
2.1952627548e-21
2.19526276319e-21
2.19526343596e-21
2.19531183632e-21
2.19896748268e-21
2.259122676e-21
0.0174039468174
0.00144469178989
5.27640878451e-06
1.17496902688e-06
4.94795553008e-07
3.28673694088e-07
2.78151127089e-07
2.60838306974e-07
2.51522877626e-07
2.44148362757e-07
2.36703048371e-07
2.2937199442e-07
2.22115933775e-07
2.15170999128e-07
2.08121501504e-07
2.01227688512e-07
1.94607360114e-07
1.88537422732e-07
1.82670811297e-07
1.77252598114e-07
1.7238261783e-07
1.68107591769e-07
1.64693350284e-07
1.61747030767e-07
1.59516944555e-07
1.5801742794e-07
1.56749770036e-07
2.19526275385e-21
2.19526275385e-21
2.19526275385e-21
2.19526275385e-21
2.19526275385e-21
2.19526275386e-21
2.19526275386e-21
2.19526275386e-21
2.19526275386e-21
2.19526275387e-21
2.19526275387e-21
2.19526275387e-21
2.19526275387e-21
2.19526275387e-21
2.19526275388e-21
2.19526275388e-21
2.19526275388e-21
2.19526275388e-21
2.19526275389e-21
2.19526275389e-21
2.19526275389e-21
2.19526275389e-21
2.19526275389e-21
2.1952627539e-21
2.1952627539e-21
2.1952627539e-21
2.1952627539e-21
2.1952627539e-21
2.19526275391e-21
2.19526275391e-21
2.19526275391e-21
2.19526275391e-21
2.19526275391e-21
2.19526275392e-21
2.19526275392e-21
2.19526275392e-21
2.19526275393e-21
2.19526275453e-21
2.19526280348e-21
2.19526669571e-21
2.19558280631e-21
2.20678324962e-21
1.64235765087e-08
0.00752408728534
4.49395445394e-05
2.33143171404e-06
7.15909952023e-07
3.60270588551e-07
2.75575086312e-07
2.49715051323e-07
2.40123630657e-07
2.33851010684e-07
2.2781625725e-07
2.21720654503e-07
2.15567214079e-07
2.09332210214e-07
2.03022909439e-07
1.96984737999e-07
1.9084285455e-07
1.84942039319e-07
1.79339522114e-07
1.74122713274e-07
1.69339376714e-07
1.65028307206e-07
1.61471119252e-07
1.58269070411e-07
1.55659369975e-07
1.53682988068e-07
1.52350656277e-07
1.51368153483e-07
2.19526275368e-21
2.19526275368e-21
2.19526275368e-21
2.19526275368e-21
2.19526275368e-21
2.19526275368e-21
2.19526275368e-21
2.19526275369e-21
2.19526275369e-21
2.19526275369e-21
2.19526275369e-21
2.19526275369e-21
2.19526275369e-21
2.19526275369e-21
2.19526275369e-21
2.1952627537e-21
2.1952627537e-21
2.1952627537e-21
2.1952627537e-21
2.1952627537e-21
2.1952627537e-21
2.1952627537e-21
2.1952627537e-21
2.19526275371e-21
2.19526275371e-21
2.19526275371e-21
2.19526275371e-21
2.19526275371e-21
2.19526275371e-21
2.19526275371e-21
2.19526275371e-21
2.19526275371e-21
2.19526275372e-21
2.19526275372e-21
2.19526275372e-21
2.19526275372e-21
2.19526275374e-21
2.19526275544e-21
2.19526289887e-21
2.19527384424e-21
2.19616406927e-21
2.21895460326e-21
0.000101880154759
0.00281598107144
1.16859312394e-05
1.63680784599e-06
5.66367196563e-07
3.24189381864e-07
2.61272399184e-07
2.42152859069e-07
2.35570018187e-07
2.30089476601e-07
2.2446001408e-07
2.18712991976e-07
2.12906620048e-07
2.06980863945e-07
2.0101360414e-07
1.95026002113e-07
1.89423598934e-07
1.83836855451e-07
1.78546280594e-07
1.73636773046e-07
1.69130173401e-07
1.65075377163e-07
1.61744827868e-07
1.58745048335e-07
1.56298877409e-07
1.54459090171e-07
1.53225744203e-07
1.52349423385e-07
2.1952627536e-21
2.19526275361e-21
2.19526275361e-21
2.19526275361e-21
2.19526275361e-21
2.19526275361e-21
2.19526275361e-21
2.19526275361e-21
2.19526275361e-21
2.19526275361e-21
2.19526275361e-21
2.19526275361e-21
2.19526275362e-21
2.19526275362e-21
2.19526275362e-21
2.19526275362e-21
2.19526275362e-21
2.19526275362e-21
2.19526275362e-21
2.19526275362e-21
2.19526275362e-21
2.19526275362e-21
2.19526275362e-21
2.19526275363e-21
2.19526275363e-21
2.19526275363e-21
2.19526275363e-21
2.19526275363e-21
2.19526275363e-21
2.19526275363e-21
2.19526275363e-21
2.19526275363e-21
2.19526275363e-21
2.19526275363e-21
2.19526275363e-21
2.19526275364e-21
2.19526275367e-21
2.19526275632e-21
2.19526297893e-21
2.19527997547e-21
2.19666762282e-21
2.22798644324e-21
0.00112733893127
0.00225308153671
8.28576456336e-06
1.39522654332e-06
5.24278393977e-07
3.20599142285e-07
2.61957210027e-07
2.45891432994e-07
2.39254297258e-07
2.33656533464e-07
2.27956307289e-07
2.22141246509e-07
2.16267330616e-07
2.10282539243e-07
2.04236856266e-07
1.98251448524e-07
1.92653894678e-07
1.87089843651e-07
1.8181933363e-07
1.76898872933e-07
1.72398827823e-07
1.68376345704e-07
1.6507466047e-07
1.62112258486e-07
1.59702497874e-07
1.57887729483e-07
1.56674548022e-07
1.55833713531e-07
2.19526275357e-21
2.19526275357e-21
2.19526275357e-21
2.19526275357e-21
2.19526275357e-21
2.19526275357e-21
2.19526275357e-21
2.19526275357e-21
2.19526275357e-21
2.19526275357e-21
2.19526275357e-21
2.19526275357e-21
2.19526275357e-21
2.19526275357e-21
2.19526275358e-21
2.19526275358e-21
2.19526275358e-21
2.19526275358e-21
2.19526275358e-21
2.19526275358e-21
2.19526275358e-21
2.19526275358e-21
2.19526275358e-21
2.19526275358e-21
2.19526275358e-21
2.19526275358e-21
2.19526275358e-21
2.19526275358e-21
2.19526275358e-21
2.19526275359e-21
2.19526275359e-21
2.19526275359e-21
2.19526275359e-21
2.19526275359e-21
2.19526275359e-21
2.19526275359e-21
2.19526275363e-21
2.19526275671e-21
2.19526301639e-21
2.19528286794e-21
2.19690832337e-21
2.23193683003e-21
0.00229914742293
0.00209208233944
7.5612112063e-06
1.36735293621e-06
5.25284459497e-07
3.20779955665e-07
2.69624104282e-07
2.54993762698e-07
2.4768680669e-07
2.41884256295e-07
2.35836188902e-07
2.29792663245e-07
2.23649173954e-07
2.17449787255e-07
2.11190577954e-07
2.0522085509e-07
1.99228018322e-07
1.93499019312e-07
1.88094823255e-07
1.83044804983e-07
1.78420131403e-07
1.74308939571e-07
1.70941414395e-07
1.67906888163e-07
1.65432949286e-07
1.63550922343e-07
1.62297814442e-07
1.61425200784e-07
2.19526275354e-21
2.19526275354e-21
2.19526275354e-21
2.19526275354e-21
2.19526275354e-21
2.19526275354e-21
2.19526275354e-21
2.19526275355e-21
2.19526275355e-21
2.19526275355e-21
2.19526275355e-21
2.19526275355e-21
2.19526275355e-21
2.19526275355e-21
2.19526275355e-21
2.19526275355e-21
2.19526275355e-21
2.19526275355e-21
2.19526275355e-21
2.19526275355e-21
2.19526275355e-21
2.19526275355e-21
2.19526275355e-21
2.19526275355e-21
2.19526275355e-21
2.19526275356e-21
2.19526275356e-21
2.19526275356e-21
2.19526275356e-21
2.19526275356e-21
2.19526275356e-21
2.19526275356e-21
2.19526275356e-21
2.19526275356e-21
2.19526275356e-21
2.19526275356e-21
2.1952627536e-21
2.19526275673e-21
2.19526302003e-21
2.1952831092e-21
2.1969244438e-21
2.23230955418e-21
0.0025498856055
0.00208189559488
7.53100233409e-06
1.39192841361e-06
5.29797019084e-07
3.40061673823e-07
2.83313572851e-07
2.67255963358e-07
2.5987000063e-07
2.53681240738e-07
2.47334359728e-07
2.40952280959e-07
2.34489733588e-07
2.27949865787e-07
2.21330207693e-07
2.15051510817e-07
2.08727591163e-07
2.02716472429e-07
1.97043763486e-07
1.9174189809e-07
1.86896418283e-07
1.82788565133e-07
1.79047433065e-07
1.75879679771e-07
1.7329361085e-07
1.71348555433e-07
1.70035689076e-07
1.69117442072e-07
2.19526275352e-21
2.19526275352e-21
2.19526275353e-21
2.19526275353e-21
2.19526275353e-21
2.19526275353e-21
2.19526275353e-21
2.19526275353e-21
2.19526275353e-21
2.19526275353e-21
2.19526275353e-21
2.19526275353e-21
2.19526275353e-21
2.19526275353e-21
2.19526275353e-21
2.19526275353e-21
2.19526275353e-21
2.19526275353e-21
2.19526275353e-21
2.19526275353e-21
2.19526275353e-21
2.19526275353e-21
2.19526275353e-21
2.19526275354e-21
2.19526275354e-21
2.19526275354e-21
2.19526275354e-21
2.19526275354e-21
2.19526275354e-21
2.19526275354e-21
2.19526275354e-21
2.19526275354e-21
2.19526275354e-21
2.19526275354e-21
2.19526275354e-21
2.19526275354e-21
2.19526275358e-21
2.19526275651e-21
2.19526300375e-21
2.19528192655e-21
2.19683734559e-21
2.23093156606e-21
0.00186006680265
0.00214235544273
7.94582805357e-06
1.43401502293e-06
5.69672912534e-07
3.53702460708e-07
3.01645875981e-07
2.83902917466e-07
2.75843360011e-07
2.6924220435e-07
2.62313264406e-07
2.55355847026e-07
2.48381564716e-07
2.41363137947e-07
2.3433081844e-07
2.27656418689e-07
2.20927459466e-07
2.14529445628e-07
2.08463533284e-07
2.02829488945e-07
1.97684030448e-07
1.93336077868e-07
1.8936932613e-07
1.86027941253e-07
1.83329738817e-07
1.81260817235e-07
1.79868170149e-07
1.78884236564e-07
2.19526275351e-21
2.19526275351e-21
2.19526275351e-21
2.19526275351e-21
2.19526275351e-21
2.19526275351e-21
2.19526275351e-21
2.19526275351e-21
2.19526275352e-21
2.19526275352e-21
2.19526275352e-21
2.19526275352e-21
2.19526275352e-21
2.19526275352e-21
2.19526275352e-21
2.19526275352e-21
2.19526275352e-21
2.19526275352e-21
2.19526275352e-21
2.19526275352e-21
2.19526275352e-21
2.19526275352e-21
2.19526275352e-21
2.19526275352e-21
2.19526275352e-21
2.19526275352e-21
2.19526275352e-21
2.19526275352e-21
2.19526275352e-21
2.19526275352e-21
2.19526275352e-21
2.19526275352e-21
2.19526275353e-21
2.19526275353e-21
2.19526275353e-21
2.19526275353e-21
2.19526275356e-21
2.19526275622e-21
2.19526298144e-21
2.19528028574e-21
2.19669628884e-21
2.22855896023e-21
0.00125493626595
0.00225558600136
8.63802380589e-06
1.53252611784e-06
6.00453195634e-07
3.84141870457e-07
3.22019317535e-07
3.04258980558e-07
2.95673332011e-07
2.88343190367e-07
2.80727777236e-07
2.73146868913e-07
2.65568638875e-07
2.57960781366e-07
2.50370285331e-07
2.43165297723e-07
2.35932162214e-07
2.29038078914e-07
2.22520681266e-07
2.1647443985e-07
2.11194090988e-07
2.06278225966e-07
2.02038814044e-07
1.98488517097e-07
1.95601833556e-07
1.934116307e-07
1.91905185086e-07
1.90838314361e-07
2.1952627535e-21
2.1952627535e-21
2.1952627535e-21
2.1952627535e-21
2.1952627535e-21
2.1952627535e-21
2.1952627535e-21
2.19526275351e-21
2.19526275351e-21
2.19526275351e-21
2.19526275351e-21
2.19526275351e-21
2.19526275351e-21
2.19526275351e-21
2.19526275351e-21
2.19526275351e-21
2.19526275351e-21
2.19526275351e-21
2.19526275351e-21
2.19526275351e-21
2.19526275351e-21
2.19526275351e-21
2.19526275351e-21
2.19526275351e-21
2.19526275351e-21
2.19526275351e-21
2.19526275351e-21
2.19526275351e-21
2.19526275351e-21
2.19526275351e-21
2.19526275351e-21
2.19526275351e-21
2.19526275351e-21
2.19526275351e-21
2.19526275352e-21
2.19526275352e-21
2.19526275354e-21
2.19526275588e-21
2.19526295391e-21
2.19527811987e-21
2.19651288175e-21
2.22568477995e-21
0.00065162220694
0.00239943591017
9.565437207e-06
1.63239527106e-06
6.54231538537e-07
4.12055715303e-07
3.48775913372e-07
3.2969020199e-07
3.1996910923e-07
3.11438240425e-07
3.03236622398e-07
2.94818064711e-07
2.8641597263e-07
2.78065531149e-07
2.69779272152e-07
2.61912753688e-07
2.5401118076e-07
2.46501784284e-07
2.3941982274e-07
2.32862237274e-07
2.27142987493e-07
2.21841558184e-07
2.17251478085e-07
2.13401163039e-07
2.10289819825e-07
2.07929490115e-07
2.06314494668e-07
2.0520055607e-07
2.1952627535e-21
2.1952627535e-21
2.1952627535e-21
2.1952627535e-21
2.1952627535e-21
2.1952627535e-21
2.1952627535e-21
2.1952627535e-21
2.1952627535e-21
2.1952627535e-21
2.1952627535e-21
2.1952627535e-21
2.1952627535e-21
2.1952627535e-21
2.1952627535e-21
2.1952627535e-21
2.1952627535e-21
2.1952627535e-21
2.1952627535e-21
2.1952627535e-21
2.1952627535e-21
2.1952627535e-21
2.1952627535e-21
2.1952627535e-21
2.1952627535e-21
2.1952627535e-21
2.1952627535e-21
2.1952627535e-21
2.1952627535e-21
2.1952627535e-21
2.19526275351e-21
2.19526275351e-21
2.19526275351e-21
2.19526275351e-21
2.19526275351e-21
2.19526275351e-21
2.19526275353e-21
2.19526275554e-21
2.19526292529e-21
2.19527594855e-21
2.19633235423e-21
2.22268773416e-21
0.000245314812305
0.00257702690365
1.09618113068e-05
1.76023575483e-06
6.97363565166e-07
4.53529032095e-07
3.81563697515e-07
3.59186657249e-07
3.48223474089e-07
3.38999816269e-07
3.29977838305e-07
3.20612424282e-07
3.11265654472e-07
3.01955866413e-07
2.92785774801e-07
2.8404910717e-07
2.7539106704e-07
2.67165547177e-07
2.59446860052e-07
2.52560116618e-07
2.46035354201e-07
2.40252232978e-07
2.35246487246e-07
2.31032875124e-07
2.27668806737e-07
2.25104526168e-07
2.23382410226e-07
2.22223368259e-07
2.19526275349e-21
2.19526275349e-21
2.19526275349e-21
2.19526275349e-21
2.19526275349e-21
2.19526275349e-21
2.19526275349e-21
2.19526275349e-21
2.19526275349e-21
2.19526275349e-21
2.19526275349e-21
2.19526275349e-21
2.19526275349e-21
2.19526275349e-21
2.19526275349e-21
2.19526275349e-21
2.19526275349e-21
2.19526275349e-21
2.19526275349e-21
2.1952627535e-21
2.1952627535e-21
2.1952627535e-21
2.1952627535e-21
2.1952627535e-21
2.1952627535e-21
2.1952627535e-21
2.1952627535e-21
2.1952627535e-21
2.1952627535e-21
2.1952627535e-21
2.1952627535e-21
2.1952627535e-21
2.1952627535e-21
2.1952627535e-21
2.1952627535e-21
2.1952627535e-21
2.19526275352e-21
2.19526275526e-21
2.19526290227e-21
2.19527414777e-21
2.19617871373e-21
2.21977095576e-21
0.000119180372067
0.00278805264183
1.27569180366e-05
1.92343049299e-06
7.64217485434e-07
4.9917247137e-07
4.19411010056e-07
3.94428906782e-07
3.8189461721e-07
3.71298156383e-07
3.61106399779e-07
3.50628278199e-07
3.40145399993e-07
3.29832755086e-07
3.19968931318e-07
3.10005398756e-07
3.00443087461e-07
2.91367754058e-07
2.82848985344e-07
2.75288762992e-07
2.68142985814e-07
2.6182480141e-07
2.56359173025e-07
2.51755360138e-07
2.48037252947e-07
2.45219551138e-07
2.43591215917e-07
2.42051223406e-07
2.19526275348e-21
2.19526275348e-21
2.19526275348e-21
2.19526275349e-21
2.19526275349e-21
2.19526275349e-21
2.19526275349e-21
2.19526275349e-21
2.19526275349e-21
2.19526275349e-21
2.19526275349e-21
2.19526275349e-21
2.19526275349e-21
2.19526275349e-21
2.19526275349e-21
2.19526275349e-21
2.19526275349e-21
2.19526275349e-21
2.19526275349e-21
2.19526275349e-21
2.19526275349e-21
2.19526275349e-21
2.19526275349e-21
2.19526275349e-21
2.19526275349e-21
2.19526275349e-21
2.19526275349e-21
2.19526275349e-21
2.19526275349e-21
2.19526275349e-21
2.19526275349e-21
2.19526275349e-21
2.19526275349e-21
2.19526275349e-21
2.19526275349e-21
2.19526275349e-21
2.19526275351e-21
2.19526275499e-21
2.19526288011e-21
2.19527250892e-21
2.19604202592e-21
2.21700832512e-21
1.60141609815e-05
0.00306873998764
1.50822196225e-05
2.11234584729e-06
8.42995378965e-07
5.39604011898e-07
4.65891667859e-07
4.36418071805e-07
4.2173646074e-07
4.09311758547e-07
3.9759388592e-07
3.85711649237e-07
3.7399304271e-07
3.62423768635e-07
3.51388974014e-07
3.40328854158e-07
3.29682525048e-07
3.1957051066e-07
3.10429845162e-07
3.01743642107e-07
2.93881938869e-07
2.86909385649e-07
2.80892915131e-07
2.75818152576e-07
2.72024439861e-07
2.68904533e-07
2.66805406506e-07
2.65438942538e-07
2.19526275348e-21
2.19526275348e-21
2.19526275348e-21
2.19526275348e-21
2.19526275348e-21
2.19526275348e-21
2.19526275348e-21
2.19526275348e-21
2.19526275348e-21
2.19526275348e-21
2.19526275348e-21
2.19526275348e-21
2.19526275348e-21
2.19526275348e-21
2.19526275348e-21
2.19526275348e-21
2.19526275348e-21
2.19526275348e-21
2.19526275348e-21
2.19526275349e-21
2.19526275349e-21
2.19526275349e-21
2.19526275349e-21
2.19526275349e-21
2.19526275349e-21
2.19526275349e-21
2.19526275349e-21
2.19526275349e-21
2.19526275349e-21
2.19526275349e-21
2.19526275349e-21
2.19526275349e-21
2.19526275349e-21
2.19526275349e-21
2.19526275349e-21
2.19526275349e-21
2.1952627535e-21
2.19526275474e-21
2.19526285936e-21
2.19527102533e-21
2.19592286969e-21
2.21444473839e-21
9.96848319551e-06
0.00340507428341
1.86203806827e-05
2.31237528083e-06
9.34579178211e-07
6.03739019324e-07
5.16646619046e-07
4.83728075995e-07
4.67849905295e-07
4.53923658884e-07
4.40665009425e-07
4.2706597943e-07
4.1367928975e-07
4.00525648894e-07
3.88039490697e-07
3.75586866264e-07
3.63644347028e-07
3.52371024333e-07
3.42156708662e-07
3.32446711194e-07
3.23701632644e-07
3.15970951891e-07
3.09617035485e-07
3.04007536883e-07
2.99465630753e-07
2.96042289637e-07
2.9370473798e-07
2.92214438777e-07
2.19526275348e-21
2.19526275348e-21
2.19526275348e-21
2.19526275348e-21
2.19526275348e-21
2.19526275348e-21
2.19526275348e-21
2.19526275348e-21
2.19526275348e-21
2.19526275348e-21
2.19526275348e-21
2.19526275348e-21
2.19526275348e-21
2.19526275348e-21
2.19526275348e-21
2.19526275348e-21
2.19526275348e-21
2.19526275348e-21
2.19526275348e-21
2.19526275348e-21
2.19526275348e-21
2.19526275348e-21
2.19526275348e-21
2.19526275348e-21
2.19526275348e-21
2.19526275348e-21
2.19526275348e-21
2.19526275348e-21
2.19526275348e-21
2.19526275348e-21
2.19526275348e-21
2.19526275348e-21
2.19526275348e-21
2.19526275349e-21
2.19526275349e-21
2.19526275349e-21
2.1952627535e-21
2.19526275453e-21
2.19526284115e-21
2.19526964369e-21
2.19581112053e-21
2.21212375477e-21
5.07129156783e-06
0.00394081028413
2.48074317351e-05
2.53430553634e-06
1.03403918335e-06
6.7616732973e-07
5.77136705594e-07
5.40047287675e-07
5.21077573636e-07
5.05137641624e-07
4.89935262599e-07
4.74532319632e-07
4.59350469356e-07
4.44818012422e-07
4.30274950084e-07
4.16213758436e-07
4.0282785107e-07
3.9054848909e-07
3.78755538889e-07
3.6792657081e-07
3.58160209163e-07
3.49821151989e-07
3.4235839477e-07
3.36119854355e-07
3.31113774574e-07
3.27321934892e-07
3.24761042445e-07
3.23155085652e-07
2.19526275347e-21
2.19526275347e-21
2.19526275347e-21
2.19526275347e-21
2.19526275347e-21
2.19526275347e-21
2.19526275348e-21
2.19526275348e-21
2.19526275348e-21
2.19526275348e-21
2.19526275348e-21
2.19526275348e-21
2.19526275348e-21
2.19526275348e-21
2.19526275348e-21
2.19526275348e-21
2.19526275348e-21
2.19526275348e-21
2.19526275348e-21
2.19526275348e-21
2.19526275348e-21
2.19526275348e-21
2.19526275348e-21
2.19526275348e-21
2.19526275348e-21
2.19526275348e-21
2.19526275348e-21
2.19526275348e-21
2.19526275348e-21
2.19526275348e-21
2.19526275348e-21
2.19526275348e-21
2.19526275348e-21
2.19526275348e-21
2.19526275348e-21
2.19526275348e-21
2.19526275349e-21
2.19526275437e-21
2.19526282705e-21
2.19526857946e-21
2.19573319714e-21
2.210315599e-21
1.12740307304e-06
0.00464075565613
3.33291014965e-05
2.83192235133e-06
1.14013770468e-06
7.51210675541e-07
6.44317258996e-07
6.0559260669e-07
5.83920540839e-07
5.65237113057e-07
5.47488300833e-07
5.29601557833e-07
5.12142476312e-07
4.95463752263e-07
4.78944095928e-07
4.63026801382e-07
4.48316399422e-07
4.34069266775e-07
4.20847765539e-07
4.0874193557e-07
3.9816015618e-07
3.88459745883e-07
3.80108757727e-07
3.73125887637e-07
3.67530978354e-07
3.63331903697e-07
3.60800224431e-07
3.58672088822e-07
2.19526275347e-21
2.19526275347e-21
2.19526275347e-21
2.19526275347e-21
2.19526275347e-21
2.19526275347e-21
2.19526275347e-21
2.19526275347e-21
2.19526275347e-21
2.19526275347e-21
2.19526275347e-21
2.19526275347e-21
2.19526275347e-21
2.19526275347e-21
2.19526275347e-21
2.19526275347e-21
2.19526275347e-21
2.19526275347e-21
2.19526275348e-21
2.19526275348e-21
2.19526275348e-21
2.19526275348e-21
2.19526275348e-21
2.19526275348e-21
2.19526275348e-21
2.19526275348e-21
2.19526275348e-21
2.19526275348e-21
2.19526275348e-21
2.19526275348e-21
2.19526275348e-21
2.19526275348e-21
2.19526275348e-21
2.19526275348e-21
2.19526275348e-21
2.19526275348e-21
2.19526275349e-21
2.19526275423e-21
2.19526281498e-21
2.19526764298e-21
2.19565791224e-21
2.20892710743e-21
2.0038010965e-08
0.00588401037525
5.19717054964e-05
3.13333452883e-06
1.26835492317e-06
8.41017344501e-07
7.28522505593e-07
6.8327516994e-07
6.56620848982e-07
6.34617640956e-07
6.13893250857e-07
5.93215580671e-07
5.73049973264e-07
5.53903229764e-07
5.35011362575e-07
5.16842532379e-07
5.00129585964e-07
4.84060683797e-07
4.69157457894e-07
4.55908852045e-07
4.43586254868e-07
4.32733826642e-07
4.23338213852e-07
4.15513272372e-07
4.09618994876e-07
4.0488576794e-07
4.0166194633e-07
3.99671695934e-07
2.19526275347e-21
2.19526275347e-21
2.19526275347e-21
2.19526275347e-21
2.19526275347e-21
2.19526275347e-21
2.19526275347e-21
2.19526275347e-21
2.19526275347e-21
2.19526275347e-21
2.19526275347e-21
2.19526275347e-21
2.19526275347e-21
2.19526275347e-21
2.19526275347e-21
2.19526275347e-21
2.19526275347e-21
2.19526275347e-21
2.19526275347e-21
2.19526275347e-21
2.19526275347e-21
2.19526275347e-21
2.19526275347e-21
2.19526275347e-21
2.19526275347e-21
2.19526275347e-21
2.19526275347e-21
2.19526275347e-21
2.19526275348e-21
2.19526275348e-21
2.19526275348e-21
2.19526275348e-21
2.19526275348e-21
2.19526275348e-21
2.19526275348e-21
2.19526275348e-21
2.19526275349e-21
2.19526275412e-21
2.19526280462e-21
2.19526680927e-21
2.19558996096e-21
2.20772902861e-21
1.63374202861e-08
0.00851953878406
9.5617888373e-05
3.51409709395e-06
1.40753472163e-06
9.50717338974e-07
8.16430555054e-07
7.68307652018e-07
7.40122601211e-07
7.15085344092e-07
6.90401928273e-07
6.66399208669e-07
6.43627076534e-07
6.21134815954e-07
5.99392141787e-07
5.79124055437e-07
5.59578217877e-07
5.41286278714e-07
5.24855131413e-07
5.09424552064e-07
4.95563252738e-07
4.83328686297e-07
4.73237815466e-07
4.64439821922e-07
4.57400687003e-07
4.52050202932e-07
4.48353298023e-07
4.4607396458e-07
2.19526275347e-21
2.19526275347e-21
2.19526275347e-21
2.19526275347e-21
2.19526275347e-21
2.19526275347e-21
2.19526275347e-21
2.19526275347e-21
2.19526275347e-21
2.19526275347e-21
2.19526275347e-21
2.19526275347e-21
2.19526275347e-21
2.19526275347e-21
2.19526275347e-21
2.19526275347e-21
2.19526275347e-21
2.19526275347e-21
2.19526275347e-21
2.19526275347e-21
2.19526275347e-21
2.19526275347e-21
2.19526275347e-21
2.19526275347e-21
2.19526275347e-21
2.19526275347e-21
2.19526275347e-21
2.19526275347e-21
2.19526275347e-21
2.19526275347e-21
2.19526275347e-21
2.19526275347e-21
2.19526275347e-21
2.19526275347e-21
2.19526275347e-21
2.19526275347e-21
2.19526275348e-21
2.19526275403e-21
2.19526279665e-21
2.19526611449e-21
2.19553429684e-21
2.20673253751e-21
1.38629392127e-08
0.0142007606241
0.000218611701437
3.89459432966e-06
1.57257479691e-06
1.06270999659e-06
9.26665584247e-07
8.67403705539e-07
8.35043640263e-07
8.06330726686e-07
7.77764630525e-07
7.50057232559e-07
7.2372014898e-07
6.97786172609e-07
6.73436999072e-07
6.49734594202e-07
6.27432221363e-07
6.07146294687e-07
5.87949107845e-07
5.70580916654e-07
5.55347101156e-07
5.41527279997e-07
5.29657020796e-07
5.19749378925e-07
5.11777764526e-07
5.05718707249e-07
5.01995452777e-07
4.99446204761e-07
2.19526275347e-21
2.19526275347e-21
2.19526275347e-21
2.19526275347e-21
2.19526275347e-21
2.19526275347e-21
2.19526275347e-21
2.19526275347e-21
2.19526275347e-21
2.19526275347e-21
2.19526275347e-21
2.19526275347e-21
2.19526275347e-21
2.19526275347e-21
2.19526275347e-21
2.19526275347e-21
2.19526275347e-21
2.19526275347e-21
2.19526275347e-21
2.19526275347e-21
2.19526275347e-21
2.19526275347e-21
2.19526275347e-21
2.19526275347e-21
2.19526275347e-21
2.19526275347e-21
2.19526275347e-21
2.19526275347e-21
2.19526275347e-21
2.19526275347e-21
2.19526275347e-21
2.19526275347e-21
2.19526275347e-21
2.19526275347e-21
2.19526275347e-21
2.19526275347e-21
2.19526275348e-21
2.19526275396e-21
2.19526279121e-21
2.19526564989e-21
2.19549238602e-21
2.20591005095e-21
1.16414174512e-08
0.0206588659145
0.000373079358702
4.38538133747e-06
1.75960372976e-06
1.19277868686e-06
1.04207668631e-06
9.83632741212e-07
9.45758962134e-07
9.11183361385e-07
8.77981965926e-07
8.46399263247e-07
8.15386137505e-07
7.85427803213e-07
7.57396980559e-07
7.30295531951e-07
7.05304178471e-07
6.81632126259e-07
6.59893625856e-07
6.40609553037e-07
6.22875074438e-07
6.07308589828e-07
5.93886170718e-07
5.83210620139e-07
5.74168421695e-07
5.67293869413e-07
5.62536119471e-07
5.59742895595e-07
2.19526275346e-21
2.19526275346e-21
2.19526275346e-21
2.19526275346e-21
2.19526275346e-21
2.19526275346e-21
2.19526275346e-21
2.19526275346e-21
2.19526275347e-21
2.19526275347e-21
2.19526275347e-21
2.19526275347e-21
2.19526275347e-21
2.19526275347e-21
2.19526275347e-21
2.19526275347e-21
2.19526275347e-21
2.19526275347e-21
2.19526275347e-21
2.19526275347e-21
2.19526275347e-21
2.19526275347e-21
2.19526275347e-21
2.19526275347e-21
2.19526275347e-21
2.19526275347e-21
2.19526275347e-21
2.19526275347e-21
2.19526275347e-21
2.19526275347e-21
2.19526275347e-21
2.19526275347e-21
2.19526275347e-21
2.19526275347e-21
2.19526275347e-21
2.19526275347e-21
2.19526275348e-21
2.1952627539e-21
2.19526278651e-21
2.19526524319e-21
2.195455129e-21
2.20514180012e-21
9.55608001404e-09
0.0246420530827
0.000571083794828
4.90505776086e-06
1.96340353411e-06
1.3445351971e-06
1.18053729268e-06
1.11503602274e-06
1.0709500276e-06
1.03112025501e-06
9.92508246492e-07
9.55796460896e-07
9.19836853092e-07
8.85936523574e-07
8.529934795e-07
8.21862203321e-07
7.93303799411e-07
7.66261005726e-07
7.42096885354e-07
7.19651495446e-07
6.9957584172e-07
6.82519968287e-07
6.67332347114e-07
6.54647024288e-07
6.44443899176e-07
6.36643593564e-07
6.31751721429e-07
6.284673714e-07
2.19526275346e-21
2.19526275346e-21
2.19526275346e-21
2.19526275346e-21
2.19526275346e-21
2.19526275346e-21
2.19526275346e-21
2.19526275346e-21
2.19526275346e-21
2.19526275346e-21
2.19526275346e-21
2.19526275346e-21
2.19526275346e-21
2.19526275346e-21
2.19526275346e-21
2.19526275347e-21
2.19526275347e-21
2.19526275347e-21
2.19526275347e-21
2.19526275347e-21
2.19526275347e-21
2.19526275347e-21
2.19526275347e-21
2.19526275347e-21
2.19526275347e-21
2.19526275347e-21
2.19526275347e-21
2.19526275347e-21
2.19526275347e-21
2.19526275347e-21
2.19526275347e-21
2.19526275347e-21
2.19526275347e-21
2.19526275347e-21
2.19526275347e-21
2.19526275347e-21
2.19526275347e-21
2.19526275385e-21
2.19526278274e-21
2.19526493649e-21
2.19542045361e-21
2.20448410875e-21
8.16406510243e-09
0.026472286662
0.000732344342215
5.45961073537e-06
2.19610577891e-06
1.50762973193e-06
1.3467917298e-06
1.27297419749e-06
1.21793393703e-06
1.16951786225e-06
1.12393651572e-06
1.08078888865e-06
1.0388972866e-06
9.99562390516e-07
9.61561755489e-07
9.26436181294e-07
8.93082354898e-07
8.62855411417e-07
8.3465365922e-07
8.09113500573e-07
7.87049247227e-07
7.67053670273e-07
7.49865021027e-07
7.36114872346e-07
7.24510214505e-07
7.15583018892e-07
7.09383822101e-07
7.05602342991e-07
2.19526275346e-21
2.19526275346e-21
2.19526275346e-21
2.19526275346e-21
2.19526275346e-21
2.19526275346e-21
2.19526275346e-21
2.19526275346e-21
2.19526275346e-21
2.19526275346e-21
2.19526275346e-21
2.19526275346e-21
2.19526275346e-21
2.19526275346e-21
2.19526275346e-21
2.19526275346e-21
2.19526275346e-21
2.19526275346e-21
2.19526275346e-21
2.19526275346e-21
2.19526275346e-21
2.19526275346e-21
2.19526275347e-21
2.19526275347e-21
2.19526275347e-21
2.19526275347e-21
2.19526275347e-21
2.19526275347e-21
2.19526275347e-21
2.19526275347e-21
2.19526275347e-21
2.19526275347e-21
2.19526275347e-21
2.19526275347e-21
2.19526275347e-21
2.19526275347e-21
2.19526275347e-21
2.19526275381e-21
2.19526277988e-21
2.19526473832e-21
2.19539795423e-21
2.20387537668e-21
5.93459493255e-09
0.0271123984975
0.000881689928082
6.14281462319e-06
2.44328538679e-06
1.71954314577e-06
1.52287246423e-06
1.44320674446e-06
1.38163217042e-06
1.32544374912e-06
1.27285620099e-06
1.22228306996e-06
1.17459799047e-06
1.12836640884e-06
1.08540472504e-06
1.04436537879e-06
1.00682440432e-06
9.71528170763e-07
9.40127753669e-07
9.11143242073e-07
8.85249023421e-07
8.6333219638e-07
8.43862001223e-07
8.27528130531e-07
8.1431298761e-07
8.04852998379e-07
7.97654127761e-07
7.93320825558e-07
2.19526275346e-21
2.19526275346e-21
2.19526275346e-21
2.19526275346e-21
2.19526275346e-21
2.19526275346e-21
2.19526275346e-21
2.19526275346e-21
2.19526275346e-21
2.19526275346e-21
2.19526275346e-21
2.19526275346e-21
2.19526275346e-21
2.19526275346e-21
2.19526275346e-21
2.19526275346e-21
2.19526275346e-21
2.19526275346e-21
2.19526275346e-21
2.19526275346e-21
2.19526275346e-21
2.19526275346e-21
2.19526275346e-21
2.19526275346e-21
2.19526275346e-21
2.19526275346e-21
2.19526275347e-21
2.19526275347e-21
2.19526275347e-21
2.19526275347e-21
2.19526275347e-21
2.19526275347e-21
2.19526275347e-21
2.19526275347e-21
2.19526275347e-21
2.19526275347e-21
2.19526275347e-21
2.19526275378e-21
2.19526277742e-21
2.19526455917e-21
2.19538435514e-21
2.20330743389e-21
5.09212222574e-09
0.0270695910136
0.00102591537383
6.94066541287e-06
2.69690901545e-06
1.93095380242e-06
1.72693788942e-06
1.64371478148e-06
1.56972349861e-06
1.50389338171e-06
1.44258431473e-06
1.38341049198e-06
1.3279640838e-06
1.27536018741e-06
1.22500288888e-06
1.1785088935e-06
1.13463425169e-06
1.09515354731e-06
1.05841984078e-06
1.02542557909e-06
9.96792189622e-07
9.71086627962e-07
9.48915357979e-07
9.31175070846e-07
9.16157668342e-07
9.04556206575e-07
8.96282143587e-07
8.9122034031e-07
2.19526275346e-21
2.19526275346e-21
2.19526275346e-21
2.19526275346e-21
2.19526275346e-21
2.19526275346e-21
2.19526275346e-21
2.19526275346e-21
2.19526275346e-21
2.19526275346e-21
2.19526275346e-21
2.19526275346e-21
2.19526275346e-21
2.19526275346e-21
2.19526275346e-21
2.19526275346e-21
2.19526275346e-21
2.19526275346e-21
2.19526275346e-21
2.19526275346e-21