/*--------------------------------*- C++ -*----------------------------------*\
| =========                 |                                                 |
| \\      /  F ield         | foam-extend: Open Source CFD                    |
|  \\    /   O peration     | Version:     4.1                                |
|   \\  /    A nd           | Web:         http://www.foam-extend.org         |
|    \\/     M anipulation  |                                                 |
\*---------------------------------------------------------------------------*/
FoamFile
{
    version     2.0;
    format      ascii;
    class       volScalarField;
    location    "0.0001";
    object      NOPlus;
}
// * * * * * * * * * * * * * * * * * * * * * * * * * * * * * * * * * * * * * //

dimensions      [0 0 0 0 0 0 0];

internalField   nonuniform List<scalar> 
8400
(
1.21417155536e-66
1.21417155537e-66
1.21417155538e-66
1.21417155538e-66
1.21417155539e-66
1.21417155539e-66
1.2141715554e-66
1.2141715554e-66
1.21417155541e-66
1.21417155542e-66
1.21417155542e-66
1.21417155543e-66
1.21417155543e-66
1.21417155544e-66
1.21417155544e-66
1.21417155545e-66
1.21417155545e-66
1.21417155546e-66
1.21417155546e-66
1.21417155547e-66
1.21417155547e-66
1.21417155548e-66
1.21417155548e-66
1.21417155549e-66
1.21417155549e-66
1.21417155549e-66
1.2141715555e-66
1.2141715555e-66
1.21417155551e-66
1.21417155551e-66
1.21417155552e-66
1.21417155552e-66
1.21417155553e-66
1.21417155553e-66
1.21417155554e-66
1.21417155554e-66
1.21417155555e-66
1.21417155565e-66
1.21417156342e-66
1.21417218638e-66
1.21421700433e-66
1.21760207385e-66
1.27330481162e-66
1.26597005087e-09
0.000445227384559
2.69879448809e-05
9.96763499744e-06
5.46173346015e-06
4.09126605736e-06
3.64026178204e-06
3.4841065676e-06
3.40180884342e-06
3.33680196486e-06
3.27061649226e-06
3.20473077694e-06
3.13873024012e-06
3.07476057281e-06
3.0090087338e-06
2.94392761456e-06
2.88066651967e-06
2.82191578908e-06
2.76445358483e-06
2.7107902193e-06
2.66204929337e-06
2.61885400471e-06
2.58409847612e-06
2.55380582073e-06
2.53077814441e-06
2.51519821991e-06
2.50168969216e-06
1.21417155476e-66
1.21417155476e-66
1.21417155476e-66
1.21417155477e-66
1.21417155477e-66
1.21417155477e-66
1.21417155477e-66
1.21417155477e-66
1.21417155478e-66
1.21417155478e-66
1.21417155478e-66
1.21417155478e-66
1.21417155478e-66
1.21417155479e-66
1.21417155479e-66
1.21417155479e-66
1.21417155479e-66
1.21417155479e-66
1.2141715548e-66
1.2141715548e-66
1.2141715548e-66
1.2141715548e-66
1.2141715548e-66
1.21417155481e-66
1.21417155481e-66
1.21417155481e-66
1.21417155481e-66
1.21417155481e-66
1.21417155482e-66
1.21417155482e-66
1.21417155482e-66
1.21417155482e-66
1.21417155482e-66
1.21417155482e-66
1.21417155483e-66
1.21417155483e-66
1.21417155484e-66
1.21417155539e-66
1.21417160072e-66
1.21417520486e-66
1.21446791817e-66
1.22483934784e-66
2.37791078186e-26
1.75616726158e-05
0.000100711117185
1.58710544694e-05
7.08895742322e-06
4.38531023663e-06
3.62822810801e-06
3.38702461464e-06
3.29924235233e-06
3.24278668255e-06
3.18817498193e-06
3.13251165265e-06
3.07574125784e-06
3.01759360939e-06
2.95809444432e-06
2.90052596593e-06
2.84130011373e-06
2.78378217605e-06
2.72855061855e-06
2.67655080551e-06
2.62837439735e-06
2.58454547206e-06
2.54803211236e-06
2.51488113443e-06
2.48770951878e-06
2.4669788815e-06
2.45299527732e-06
2.44239668798e-06
1.2141715546e-66
1.2141715546e-66
1.2141715546e-66
1.21417155461e-66
1.21417155461e-66
1.21417155461e-66
1.21417155461e-66
1.21417155461e-66
1.21417155461e-66
1.21417155461e-66
1.21417155461e-66
1.21417155462e-66
1.21417155462e-66
1.21417155462e-66
1.21417155462e-66
1.21417155462e-66
1.21417155462e-66
1.21417155462e-66
1.21417155462e-66
1.21417155462e-66
1.21417155463e-66
1.21417155463e-66
1.21417155463e-66
1.21417155463e-66
1.21417155463e-66
1.21417155463e-66
1.21417155463e-66
1.21417155463e-66
1.21417155463e-66
1.21417155464e-66
1.21417155464e-66
1.21417155464e-66
1.21417155464e-66
1.21417155464e-66
1.21417155464e-66
1.21417155464e-66
1.21417155466e-66
1.21417155624e-66
1.21417168905e-66
1.21418182429e-66
1.21500615829e-66
1.2361098248e-66
7.04263395439e-15
0.000186970428781
4.44462139671e-05
1.25229574821e-05
6.02678231783e-06
4.07236859159e-06
3.49792577598e-06
3.31847022312e-06
3.25815114879e-06
3.20861153173e-06
3.15739305284e-06
3.10464163564e-06
3.05084145286e-06
2.99537531084e-06
2.93890436218e-06
2.88162676612e-06
2.82741458113e-06
2.77279258775e-06
2.72054039402e-06
2.67156410953e-06
2.62616075639e-06
2.58494365246e-06
2.55077714303e-06
2.51975155383e-06
2.49433974871e-06
2.47505322056e-06
2.46211965885e-06
2.45275518433e-06
1.21417155454e-66
1.21417155454e-66
1.21417155454e-66
1.21417155454e-66
1.21417155454e-66
1.21417155454e-66
1.21417155454e-66
1.21417155454e-66
1.21417155454e-66
1.21417155454e-66
1.21417155454e-66
1.21417155455e-66
1.21417155455e-66
1.21417155455e-66
1.21417155455e-66
1.21417155455e-66
1.21417155455e-66
1.21417155455e-66
1.21417155455e-66
1.21417155455e-66
1.21417155455e-66
1.21417155455e-66
1.21417155455e-66
1.21417155456e-66
1.21417155456e-66
1.21417155456e-66
1.21417155456e-66
1.21417155456e-66
1.21417155456e-66
1.21417155456e-66
1.21417155456e-66
1.21417155456e-66
1.21417155456e-66
1.21417155456e-66
1.21417155456e-66
1.21417155456e-66
1.21417155459e-66
1.21417155705e-66
1.21417176318e-66
1.21418750171e-66
1.21547244075e-66
1.24447316279e-66
1.0015490228e-14
0.000276846011603
3.59166218408e-05
1.12435468038e-05
5.70689951299e-06
4.03453480098e-06
3.50150922393e-06
3.35128303968e-06
3.29125064239e-06
3.24098119533e-06
3.18943460112e-06
3.13639232461e-06
3.08229593849e-06
3.02659663326e-06
2.96967529497e-06
2.91270642104e-06
2.85889827021e-06
2.80486554284e-06
2.75316179057e-06
2.70439203478e-06
2.65935111308e-06
2.61873126599e-06
2.58516783832e-06
2.55474234349e-06
2.5298822462e-06
2.5110393947e-06
2.49843993009e-06
2.48950213122e-06
1.2141715545e-66
1.2141715545e-66
1.2141715545e-66
1.2141715545e-66
1.2141715545e-66
1.2141715545e-66
1.2141715545e-66
1.2141715545e-66
1.21417155451e-66
1.21417155451e-66
1.21417155451e-66
1.21417155451e-66
1.21417155451e-66
1.21417155451e-66
1.21417155451e-66
1.21417155451e-66
1.21417155451e-66
1.21417155451e-66
1.21417155451e-66
1.21417155451e-66
1.21417155451e-66
1.21417155451e-66
1.21417155451e-66
1.21417155451e-66
1.21417155452e-66
1.21417155452e-66
1.21417155452e-66
1.21417155452e-66
1.21417155452e-66
1.21417155452e-66
1.21417155452e-66
1.21417155452e-66
1.21417155452e-66
1.21417155452e-66
1.21417155452e-66
1.21417155452e-66
1.21417155456e-66
1.21417155741e-66
1.21417179787e-66
1.21419018009e-66
1.21569532557e-66
1.24813115718e-66
1.3478679946e-13
0.000308862039635
3.39036537122e-05
1.10737733637e-05
5.70518125056e-06
4.03298826848e-06
3.56717013259e-06
3.43150637078e-06
3.36627664432e-06
3.31484464456e-06
3.260841947e-06
3.2064043192e-06
3.15052211318e-06
3.09352791212e-06
3.03534825531e-06
2.97928241082e-06
2.92239956022e-06
2.86744853044e-06
2.8150702404e-06
2.76563504679e-06
2.71992739358e-06
2.67893671551e-06
2.64505351998e-06
2.61433141627e-06
2.58912221318e-06
2.56982703102e-06
2.55692561962e-06
2.5477839594e-06
1.21417155448e-66
1.21417155448e-66
1.21417155448e-66
1.21417155448e-66
1.21417155448e-66
1.21417155448e-66
1.21417155448e-66
1.21417155448e-66
1.21417155448e-66
1.21417155448e-66
1.21417155448e-66
1.21417155448e-66
1.21417155448e-66
1.21417155448e-66
1.21417155448e-66
1.21417155449e-66
1.21417155449e-66
1.21417155449e-66
1.21417155449e-66
1.21417155449e-66
1.21417155449e-66
1.21417155449e-66
1.21417155449e-66
1.21417155449e-66
1.21417155449e-66
1.21417155449e-66
1.21417155449e-66
1.21417155449e-66
1.21417155449e-66
1.21417155449e-66
1.21417155449e-66
1.21417155449e-66
1.21417155449e-66
1.21417155449e-66
1.2141715545e-66
1.2141715545e-66
1.21417155453e-66
1.21417155743e-66
1.21417180124e-66
1.21419040349e-66
1.21571025282e-66
1.24847629373e-66
1.84048856808e-13
0.000311178026234
3.38097428197e-05
1.11959044709e-05
5.73525827702e-06
4.18898675349e-06
3.6840314935e-06
3.53830318647e-06
3.47329736865e-06
3.41925718103e-06
3.36352225743e-06
3.30702105e-06
3.2492568346e-06
3.1901811034e-06
3.12971936121e-06
3.07175813733e-06
3.01275368213e-06
2.95606938692e-06
2.9020188626e-06
2.85098170086e-06
2.80388091296e-06
2.76363839829e-06
2.72662005144e-06
2.69507527648e-06
2.66920906852e-06
2.64957057528e-06
2.63629647805e-06
2.62684697271e-06
1.21417155446e-66
1.21417155446e-66
1.21417155446e-66
1.21417155446e-66
1.21417155446e-66
1.21417155446e-66
1.21417155446e-66
1.21417155446e-66
1.21417155447e-66
1.21417155447e-66
1.21417155447e-66
1.21417155447e-66
1.21417155447e-66
1.21417155447e-66
1.21417155447e-66
1.21417155447e-66
1.21417155447e-66
1.21417155447e-66
1.21417155447e-66
1.21417155447e-66
1.21417155447e-66
1.21417155447e-66
1.21417155447e-66
1.21417155447e-66
1.21417155447e-66
1.21417155447e-66
1.21417155447e-66
1.21417155447e-66
1.21417155447e-66
1.21417155447e-66
1.21417155448e-66
1.21417155448e-66
1.21417155448e-66
1.21417155448e-66
1.21417155448e-66
1.21417155448e-66
1.21417155451e-66
1.21417155722e-66
1.21417178617e-66
1.21418930837e-66
1.21562960129e-66
1.24720029897e-66
4.8149622177e-14
0.000299057390237
3.49474601481e-05
1.14175444664e-05
6.01427684707e-06
4.29851480172e-06
3.83772480348e-06
3.6805084793e-06
3.61117658437e-06
3.55475300291e-06
3.49505249637e-06
3.4345732693e-06
3.37344072773e-06
3.31135532145e-06
3.24845048496e-06
3.18810580659e-06
3.12661677032e-06
3.06754225255e-06
3.01094094026e-06
2.95781107826e-06
2.90878925296e-06
2.86699119544e-06
2.82856992312e-06
2.79601776456e-06
2.76952529786e-06
2.74913213899e-06
2.73529897959e-06
2.72533665862e-06
1.21417155445e-66
1.21417155445e-66
1.21417155445e-66
1.21417155445e-66
1.21417155445e-66
1.21417155445e-66
1.21417155445e-66
1.21417155445e-66
1.21417155445e-66
1.21417155445e-66
1.21417155445e-66
1.21417155445e-66
1.21417155446e-66
1.21417155446e-66
1.21417155446e-66
1.21417155446e-66
1.21417155446e-66
1.21417155446e-66
1.21417155446e-66
1.21417155446e-66
1.21417155446e-66
1.21417155446e-66
1.21417155446e-66
1.21417155446e-66
1.21417155446e-66
1.21417155446e-66
1.21417155446e-66
1.21417155446e-66
1.21417155446e-66
1.21417155446e-66
1.21417155446e-66
1.21417155446e-66
1.21417155446e-66
1.21417155446e-66
1.21417155446e-66
1.21417155446e-66
1.21417155449e-66
1.21417155696e-66
1.21417176551e-66
1.21418778901e-66
1.21549898502e-66
1.24500330428e-66
7.88332235536e-15
0.000277200876863
3.68013526015e-05
1.19247167705e-05
6.22811696764e-06
4.53757545387e-06
4.00473307976e-06
3.85036739181e-06
3.77833416795e-06
3.71729321034e-06
3.65331447822e-06
3.58903622591e-06
3.5241056555e-06
3.4582165124e-06
3.39175895036e-06
3.32810829309e-06
3.26360671492e-06
3.20148033518e-06
3.14206722069e-06
3.08637739208e-06
3.03728726324e-06
2.99117358014e-06
2.95106696066e-06
2.91725086881e-06
2.88964279363e-06
2.86849207875e-06
2.85391846751e-06
2.84338797246e-06
1.21417155444e-66
1.21417155444e-66
1.21417155444e-66
1.21417155444e-66
1.21417155444e-66
1.21417155444e-66
1.21417155444e-66
1.21417155444e-66
1.21417155444e-66
1.21417155444e-66
1.21417155445e-66
1.21417155445e-66
1.21417155445e-66
1.21417155445e-66
1.21417155445e-66
1.21417155445e-66
1.21417155445e-66
1.21417155445e-66
1.21417155445e-66
1.21417155445e-66
1.21417155445e-66
1.21417155445e-66
1.21417155445e-66
1.21417155445e-66
1.21417155445e-66
1.21417155445e-66
1.21417155445e-66
1.21417155445e-66
1.21417155445e-66
1.21417155445e-66
1.21417155445e-66
1.21417155445e-66
1.21417155445e-66
1.21417155445e-66
1.21417155445e-66
1.21417155445e-66
1.21417155448e-66
1.21417155665e-66
1.21417174002e-66
1.21418578345e-66
1.21532915301e-66
1.24234185975e-66
1.79749372538e-14
0.00025115927101
3.91988248207e-05
1.24304831672e-05
6.59155829454e-06
4.75159562467e-06
4.21833385382e-06
4.05675544032e-06
3.97765201392e-06
3.90861716925e-06
3.84166341401e-06
3.77224393599e-06
3.70226666128e-06
3.63198162051e-06
3.5613849386e-06
3.49361516962e-06
3.42480813151e-06
3.35872196047e-06
3.29581959864e-06
3.2370164844e-06
3.18524521476e-06
3.13680302206e-06
3.09451347483e-06
3.05880703886e-06
3.02983059991e-06
3.00764111287e-06
2.99243167406e-06
2.98174372386e-06
1.21417155443e-66
1.21417155444e-66
1.21417155444e-66
1.21417155444e-66
1.21417155444e-66
1.21417155444e-66
1.21417155444e-66
1.21417155444e-66
1.21417155444e-66
1.21417155444e-66
1.21417155444e-66
1.21417155444e-66
1.21417155444e-66
1.21417155444e-66
1.21417155444e-66
1.21417155444e-66
1.21417155444e-66
1.21417155444e-66
1.21417155444e-66
1.21417155444e-66
1.21417155444e-66
1.21417155444e-66
1.21417155444e-66
1.21417155444e-66
1.21417155444e-66
1.21417155444e-66
1.21417155444e-66
1.21417155444e-66
1.21417155444e-66
1.21417155444e-66
1.21417155444e-66
1.21417155444e-66
1.21417155444e-66
1.21417155445e-66
1.21417155445e-66
1.21417155445e-66
1.21417155447e-66
1.21417155632e-66
1.21417171351e-66
1.21418377284e-66
1.21516198745e-66
1.23956664374e-66
1.87171746679e-14
0.00022205951604
4.26214204796e-05
1.30618824829e-05
6.87783087405e-06
5.05997495465e-06
4.47283411127e-06
4.2890060572e-06
4.20251896395e-06
4.13019810816e-06
4.05884742154e-06
3.98403117855e-06
3.90858715229e-06
3.8325459873e-06
3.75676280968e-06
3.68375895971e-06
3.61062141709e-06
3.54029154937e-06
3.4736038514e-06
3.4134900315e-06
3.35592769888e-06
3.30446472374e-06
3.25961770088e-06
3.22168050709e-06
3.1911551559e-06
3.16785609215e-06
3.15207816062e-06
3.14125161722e-06
1.21417155443e-66
1.21417155443e-66
1.21417155443e-66
1.21417155443e-66
1.21417155443e-66
1.21417155443e-66
1.21417155443e-66
1.21417155443e-66
1.21417155443e-66
1.21417155443e-66
1.21417155443e-66
1.21417155443e-66
1.21417155443e-66
1.21417155443e-66
1.21417155443e-66
1.21417155443e-66
1.21417155443e-66
1.21417155443e-66
1.21417155443e-66
1.21417155443e-66
1.21417155443e-66
1.21417155444e-66
1.21417155444e-66
1.21417155444e-66
1.21417155444e-66
1.21417155444e-66
1.21417155444e-66
1.21417155444e-66
1.21417155444e-66
1.21417155444e-66
1.21417155444e-66
1.21417155444e-66
1.21417155444e-66
1.21417155444e-66
1.21417155444e-66
1.21417155444e-66
1.21417155446e-66
1.21417155607e-66
1.21417169219e-66
1.21418210535e-66
1.21501971883e-66
1.23686575403e-66
8.4481808214e-15
0.00019173070913
4.67698617591e-05
1.38405023537e-05
7.30629647846e-06
5.38848524529e-06
4.75698423651e-06
4.55743007183e-06
4.4618075409e-06
4.38161369157e-06
4.30371782129e-06
4.22274850047e-06
4.14087153537e-06
4.05940639878e-06
3.98055286689e-06
3.89995541195e-06
3.82174468578e-06
3.74659970211e-06
3.67530002744e-06
3.61136384163e-06
3.55031224994e-06
3.49583460077e-06
3.44832244238e-06
3.4080398427e-06
3.37529705506e-06
3.3503415603e-06
3.33586837688e-06
3.32192754091e-06
1.21417155442e-66
1.21417155442e-66
1.21417155443e-66
1.21417155443e-66
1.21417155443e-66
1.21417155443e-66
1.21417155443e-66
1.21417155443e-66
1.21417155443e-66
1.21417155443e-66
1.21417155443e-66
1.21417155443e-66
1.21417155443e-66
1.21417155443e-66
1.21417155443e-66
1.21417155443e-66
1.21417155443e-66
1.21417155443e-66
1.21417155443e-66
1.21417155443e-66
1.21417155443e-66
1.21417155443e-66
1.21417155443e-66
1.21417155443e-66
1.21417155443e-66
1.21417155443e-66
1.21417155443e-66
1.21417155443e-66
1.21417155443e-66
1.21417155443e-66
1.21417155443e-66
1.21417155443e-66
1.21417155443e-66
1.21417155443e-66
1.21417155443e-66
1.21417155443e-66
1.21417155445e-66
1.21417155582e-66
1.21417167168e-66
1.2141805878e-66
1.21489314812e-66
1.23430760266e-66
2.73577119258e-18
0.000158259336045
5.18071909795e-05
1.47120098584e-05
7.79494775726e-06
5.67119771979e-06
5.09322605701e-06
4.86670417431e-06
4.75836594261e-06
4.66746421713e-06
4.58093029293e-06
4.4923737474e-06
4.40404736369e-06
4.31581436771e-06
4.23072056462e-06
4.14430761386e-06
4.06015411221e-06
3.97931892662e-06
3.90537658897e-06
3.83434231494e-06
3.76942624881e-06
3.71132350297e-06
3.6607803873e-06
3.6178639099e-06
3.58551453157e-06
3.55882478899e-06
3.54075530266e-06
3.52876070818e-06
1.21417155442e-66
1.21417155442e-66
1.21417155442e-66
1.21417155442e-66
1.21417155442e-66
1.21417155442e-66
1.21417155442e-66
1.21417155442e-66
1.21417155442e-66
1.21417155442e-66
1.21417155442e-66
1.21417155442e-66
1.21417155442e-66
1.21417155442e-66
1.21417155442e-66
1.21417155442e-66
1.21417155442e-66
1.21417155443e-66
1.21417155443e-66
1.21417155443e-66
1.21417155443e-66
1.21417155443e-66
1.21417155443e-66
1.21417155443e-66
1.21417155443e-66
1.21417155443e-66
1.21417155443e-66
1.21417155443e-66
1.21417155443e-66
1.21417155443e-66
1.21417155443e-66
1.21417155443e-66
1.21417155443e-66
1.21417155443e-66
1.21417155443e-66
1.21417155443e-66
1.21417155444e-66
1.21417155558e-66
1.21417165247e-66
1.21417921402e-66
1.21478281138e-66
1.23193376274e-66
1.71369395586e-18
0.000126573159291
5.88930691627e-05
1.56057949659e-05
8.34333095242e-06
6.10364979546e-06
5.44743136703e-06
5.20231025495e-06
5.08942999492e-06
4.99150310598e-06
4.89726373516e-06
4.79948042236e-06
4.70209938322e-06
4.60525451693e-06
4.51228726495e-06
4.41851234484e-06
4.32757350376e-06
4.24063607629e-06
4.16096218077e-06
4.0844092152e-06
4.01475923512e-06
3.95258686576e-06
3.9010760999e-06
3.85524847579e-06
3.81794921027e-06
3.78965709395e-06
3.7703310098e-06
3.75769451609e-06
1.21417155442e-66
1.21417155442e-66
1.21417155442e-66
1.21417155442e-66
1.21417155442e-66
1.21417155442e-66
1.21417155442e-66
1.21417155442e-66
1.21417155442e-66
1.21417155442e-66
1.21417155442e-66
1.21417155442e-66
1.21417155442e-66
1.21417155442e-66
1.21417155442e-66
1.21417155442e-66
1.21417155442e-66
1.21417155442e-66
1.21417155442e-66
1.21417155442e-66
1.21417155442e-66
1.21417155442e-66
1.21417155442e-66
1.21417155442e-66
1.21417155442e-66
1.21417155442e-66
1.21417155442e-66
1.21417155442e-66
1.21417155442e-66
1.21417155442e-66
1.21417155442e-66
1.21417155442e-66
1.21417155443e-66
1.21417155443e-66
1.21417155443e-66
1.21417155443e-66
1.21417155444e-66
1.21417155539e-66
1.2141716356e-66
1.21417793465e-66
1.21467933346e-66
1.22978456939e-66
8.75497408099e-19
9.06064378307e-05
7.00439122897e-05
1.65635484781e-05
8.91703495489e-06
6.57254019733e-06
5.8531034292e-06
5.58627017835e-06
5.45685035634e-06
5.34912553766e-06
5.24541928936e-06
5.13900755034e-06
5.03289757297e-06
4.93005099759e-06
4.82583339841e-06
4.72373952199e-06
4.62539627958e-06
4.53407180802e-06
4.4453256334e-06
4.36304735226e-06
4.28813474517e-06
4.22354792888e-06
4.16523983661e-06
4.1161270682e-06
4.07651966452e-06
4.04641795397e-06
4.0260270005e-06
4.01295735711e-06
1.21417155441e-66
1.21417155441e-66
1.21417155442e-66
1.21417155442e-66
1.21417155442e-66
1.21417155442e-66
1.21417155442e-66
1.21417155442e-66
1.21417155442e-66
1.21417155442e-66
1.21417155442e-66
1.21417155442e-66
1.21417155442e-66
1.21417155442e-66
1.21417155442e-66
1.21417155442e-66
1.21417155442e-66
1.21417155442e-66
1.21417155442e-66
1.21417155442e-66
1.21417155442e-66
1.21417155442e-66
1.21417155442e-66
1.21417155442e-66
1.21417155442e-66
1.21417155442e-66
1.21417155442e-66
1.21417155442e-66
1.21417155442e-66
1.21417155442e-66
1.21417155442e-66
1.21417155442e-66
1.21417155442e-66
1.21417155442e-66
1.21417155442e-66
1.21417155442e-66
1.21417155443e-66
1.21417155524e-66
1.21417162255e-66
1.21417694918e-66
1.21460717765e-66
1.22811024634e-66
1.92658704571e-19
6.09085789449e-05
8.36907524498e-05
1.77907357346e-05
9.50848010679e-06
7.04020297371e-06
6.28574161916e-06
6.01565400534e-06
5.87342478994e-06
5.75226836511e-06
5.63605367402e-06
5.51742986713e-06
5.40034536618e-06
5.28702045284e-06
5.17331484006e-06
5.06237160762e-06
4.95854940925e-06
4.85675145452e-06
4.76114131205e-06
4.67255192561e-06
4.59429985402e-06
4.52184858986e-06
4.45894806451e-06
4.40599154274e-06
4.36336972533e-06
4.33122250838e-06
4.31186845698e-06
4.29522622076e-06
1.21417155441e-66
1.21417155441e-66
1.21417155441e-66
1.21417155441e-66
1.21417155441e-66
1.21417155441e-66
1.21417155441e-66
1.21417155441e-66
1.21417155441e-66
1.21417155441e-66
1.21417155441e-66
1.21417155441e-66
1.21417155441e-66
1.21417155442e-66
1.21417155442e-66
1.21417155442e-66
1.21417155442e-66
1.21417155442e-66
1.21417155442e-66
1.21417155442e-66
1.21417155442e-66
1.21417155442e-66
1.21417155442e-66
1.21417155442e-66
1.21417155442e-66
1.21417155442e-66
1.21417155442e-66
1.21417155442e-66
1.21417155442e-66
1.21417155442e-66
1.21417155442e-66
1.21417155442e-66
1.21417155442e-66
1.21417155442e-66
1.21417155442e-66
1.21417155442e-66
1.21417155443e-66
1.21417155511e-66
1.21417161137e-66
1.21417608202e-66
1.21453746506e-66
1.22682452556e-66
2.88216889279e-26
3.35528841539e-05
0.000109285740097
1.89875119642e-05
1.01962414182e-05
7.57824621594e-06
6.80562669277e-06
6.50239739779e-06
6.33529196287e-06
6.19892210321e-06
6.06895481941e-06
5.93761169371e-06
5.80785650348e-06
5.68292473483e-06
5.55801857628e-06
5.43634844529e-06
5.32308026001e-06
5.21295808642e-06
5.10951813551e-06
5.01653760726e-06
4.92904506402e-06
4.85118885023e-06
4.78322017414e-06
4.72625543829e-06
4.68308542701e-06
4.64831724978e-06
4.624549415e-06
4.60963636528e-06
1.21417155441e-66
1.21417155441e-66
1.21417155441e-66
1.21417155441e-66
1.21417155441e-66
1.21417155441e-66
1.21417155441e-66
1.21417155441e-66
1.21417155441e-66
1.21417155441e-66
1.21417155441e-66
1.21417155441e-66
1.21417155441e-66
1.21417155441e-66
1.21417155441e-66
1.21417155441e-66
1.21417155441e-66
1.21417155441e-66
1.21417155441e-66
1.21417155441e-66
1.21417155441e-66
1.21417155441e-66
1.21417155441e-66
1.21417155442e-66
1.21417155442e-66
1.21417155442e-66
1.21417155442e-66
1.21417155442e-66
1.21417155442e-66
1.21417155442e-66
1.21417155442e-66
1.21417155442e-66
1.21417155442e-66
1.21417155442e-66
1.21417155442e-66
1.21417155442e-66
1.21417155443e-66
1.21417155501e-66
1.21417160178e-66
1.21417531002e-66
1.21447454326e-66
1.22571512392e-66
2.35907148599e-26
1.2964761565e-05
0.00015746068615
2.04301902708e-05
1.09136591743e-05
8.20620611676e-06
7.32463837332e-06
7.0124027205e-06
6.84249267679e-06
6.69423276266e-06
6.54641638971e-06
6.40063068791e-06
6.26044764571e-06
6.12005809275e-06
5.98249310266e-06
5.8524630648e-06
5.72539902016e-06
5.60504615018e-06
5.49551190363e-06
5.39145402081e-06
5.29689189486e-06
5.21261975449e-06
5.14265122743e-06
5.08122376197e-06
5.03180505512e-06
4.99405921058e-06
4.96794041532e-06
4.95161278187e-06
1.21417155441e-66
1.21417155441e-66
1.21417155441e-66
1.21417155441e-66
1.21417155441e-66
1.21417155441e-66
1.21417155441e-66
1.21417155441e-66
1.21417155441e-66
1.21417155441e-66
1.21417155441e-66
1.21417155441e-66
1.21417155441e-66
1.21417155441e-66
1.21417155441e-66
1.21417155441e-66
1.21417155441e-66
1.21417155441e-66
1.21417155441e-66
1.21417155441e-66
1.21417155441e-66
1.21417155441e-66
1.21417155441e-66
1.21417155441e-66
1.21417155441e-66
1.21417155441e-66
1.21417155441e-66
1.21417155441e-66
1.21417155441e-66
1.21417155441e-66
1.21417155441e-66
1.21417155441e-66
1.21417155442e-66
1.21417155442e-66
1.21417155442e-66
1.21417155442e-66
1.21417155442e-66
1.21417155493e-66
1.2141715944e-66
1.21417466667e-66
1.21442299918e-66
1.22479238925e-66
2.00837474021e-26
3.0535010298e-06
0.000256600288785
2.18152949787e-05
1.17300388168e-05
8.82105578776e-06
7.94768274344e-06
7.58089614607e-06
7.39462596983e-06
7.2321835898e-06
7.06852873765e-06
6.90751132452e-06
6.75224279301e-06
6.59721082616e-06
6.44987457318e-06
6.30445407106e-06
6.16578663191e-06
6.03794588182e-06
5.91545818951e-06
5.80324141107e-06
5.703788017e-06
5.61254540041e-06
5.53350257931e-06
5.46710819033e-06
5.41335597084e-06
5.37235652741e-06
5.3471222442e-06
5.32958702085e-06
1.21417155441e-66
1.21417155441e-66
1.21417155441e-66
1.21417155441e-66
1.21417155441e-66
1.21417155441e-66
1.21417155441e-66
1.21417155441e-66
1.21417155441e-66
1.21417155441e-66
1.21417155441e-66
1.21417155441e-66
1.21417155441e-66
1.21417155441e-66
1.21417155441e-66
1.21417155441e-66
1.21417155441e-66
1.21417155441e-66
1.21417155441e-66
1.21417155441e-66
1.21417155441e-66
1.21417155441e-66
1.21417155441e-66
1.21417155441e-66
1.21417155441e-66
1.21417155441e-66
1.21417155441e-66
1.21417155441e-66
1.21417155441e-66
1.21417155441e-66
1.21417155441e-66
1.21417155441e-66
1.21417155441e-66
1.21417155441e-66
1.21417155441e-66
1.21417155441e-66
1.21417155442e-66
1.21417155487e-66
1.21417158936e-66
1.21417423645e-66
1.21438419045e-66
1.22403077997e-66
1.69127949832e-26
8.73119197892e-07
0.000346025802238
2.35169996176e-05
1.26160398918e-05
9.50592633386e-06
8.5703399675e-06
8.21702296795e-06
8.0089052618e-06
7.8224144227e-06
7.64103738092e-06
7.46603143008e-06
7.29155554694e-06
7.12051093028e-06
6.95814144661e-06
6.7988898344e-06
6.65007897336e-06
6.50714201055e-06
6.37418091852e-06
6.25503749967e-06
6.14411669661e-06
6.04579688408e-06
5.96028040315e-06
5.89181286195e-06
5.83347354732e-06
5.78894694053e-06
5.75805580219e-06
5.73970026392e-06
1.21417155441e-66
1.21417155441e-66
1.21417155441e-66
1.21417155441e-66
1.21417155441e-66
1.21417155441e-66
1.21417155441e-66
1.21417155441e-66
1.21417155441e-66
1.21417155441e-66
1.21417155441e-66
1.21417155441e-66
1.21417155441e-66
1.21417155441e-66
1.21417155441e-66
1.21417155441e-66
1.21417155441e-66
1.21417155441e-66
1.21417155441e-66
1.21417155441e-66
1.21417155441e-66
1.21417155441e-66
1.21417155441e-66
1.21417155441e-66
1.21417155441e-66
1.21417155441e-66
1.21417155441e-66
1.21417155441e-66
1.21417155441e-66
1.21417155441e-66
1.21417155441e-66
1.21417155441e-66
1.21417155441e-66
1.21417155441e-66
1.21417155441e-66
1.21417155441e-66
1.21417155442e-66
1.21417155481e-66
1.21417158501e-66
1.21417385986e-66
1.21434969104e-66
1.22331939211e-66
1.39183466419e-26
3.56675641423e-07
0.000426132627668
2.52379373339e-05
1.35422681536e-05
1.02686728469e-05
9.28457735794e-06
8.9034934586e-06
8.67230152806e-06
8.46724553744e-06
8.26585584374e-06
8.07155729187e-06
7.8784595681e-06
7.6939248831e-06
7.51177867917e-06
7.33707207147e-06
7.1745325291e-06
7.01846757526e-06
6.87721719855e-06
6.74441308043e-06
6.62416794952e-06
6.52103759012e-06
6.42830762757e-06
6.35028431093e-06
6.28718330622e-06
6.23882011688e-06
6.2084618115e-06
6.18787258473e-06
1.2141715544e-66
1.2141715544e-66
1.2141715544e-66
1.2141715544e-66
1.2141715544e-66
1.21417155441e-66
1.21417155441e-66
1.21417155441e-66
1.21417155441e-66
1.21417155441e-66
1.21417155441e-66
1.21417155441e-66
1.21417155441e-66
1.21417155441e-66
1.21417155441e-66
1.21417155441e-66
1.21417155441e-66
1.21417155441e-66
1.21417155441e-66
1.21417155441e-66
1.21417155441e-66
1.21417155441e-66
1.21417155441e-66
1.21417155441e-66
1.21417155441e-66
1.21417155441e-66
1.21417155441e-66
1.21417155441e-66
1.21417155441e-66
1.21417155441e-66
1.21417155441e-66
1.21417155441e-66
1.21417155441e-66
1.21417155441e-66
1.21417155441e-66
1.21417155441e-66
1.21417155442e-66
1.21417155477e-66
1.21417158151e-66
1.21417357586e-66
1.21431758219e-66
1.22271038052e-66
1.19167840877e-26
1.84871331286e-07
0.000468023611389
2.69954885117e-05
1.45532804341e-05
1.10538267539e-05
1.01006171609e-05
9.68788018479e-06
9.4138681605e-06
9.17700668221e-06
8.9507976133e-06
8.73332080056e-06
8.518792279e-06
8.31417254259e-06
8.1133490354e-06
7.92486089702e-06
7.74321450656e-06
7.57650225329e-06
7.41904427292e-06
7.27468551923e-06
7.14847050392e-06
7.03286596502e-06
6.93260556582e-06
6.85184841186e-06
6.78322760294e-06
6.73029457771e-06
6.69344392984e-06
6.67087103721e-06
1.2141715544e-66
1.2141715544e-66
1.2141715544e-66
1.2141715544e-66
1.2141715544e-66
1.2141715544e-66
1.2141715544e-66
1.2141715544e-66
1.2141715544e-66
1.2141715544e-66
1.2141715544e-66
1.2141715544e-66
1.21417155441e-66
1.21417155441e-66
1.21417155441e-66
1.21417155441e-66
1.21417155441e-66
1.21417155441e-66
1.21417155441e-66
1.21417155441e-66
1.21417155441e-66
1.21417155441e-66
1.21417155441e-66
1.21417155441e-66
1.21417155441e-66
1.21417155441e-66
1.21417155441e-66
1.21417155441e-66
1.21417155441e-66
1.21417155441e-66
1.21417155441e-66
1.21417155441e-66
1.21417155441e-66
1.21417155441e-66
1.21417155441e-66
1.21417155441e-66
1.21417155441e-66
1.21417155473e-66
1.21417157887e-66
1.21417339235e-66
1.21429674814e-66
1.22214670445e-66
8.67916778148e-27
1.08021621696e-07
0.000489915025202
2.90573103772e-05
1.55829355464e-05
1.20248523435e-05
1.09224683721e-05
1.04942181257e-05
1.02013613875e-05
9.93926509146e-06
9.69051355943e-06
9.44738700776e-06
9.21490685968e-06
8.98577044496e-06
8.76941973096e-06
8.55936008473e-06
8.36437921257e-06
8.17837001501e-06
8.01071598323e-06
7.8539087782e-06
7.71222801763e-06
7.59105007233e-06
7.48232032325e-06
7.39046306076e-06
7.31577192496e-06
7.26219164857e-06
7.22128738798e-06
7.19656850338e-06
1.2141715544e-66
1.2141715544e-66
1.2141715544e-66
1.2141715544e-66
1.2141715544e-66
1.2141715544e-66
1.2141715544e-66
1.2141715544e-66
1.2141715544e-66
1.2141715544e-66
1.2141715544e-66
1.2141715544e-66
1.2141715544e-66
1.2141715544e-66
1.2141715544e-66
1.2141715544e-66
1.2141715544e-66
1.2141715544e-66
1.21417155441e-66
1.21417155441e-66
1.21417155441e-66
1.21417155441e-66
1.21417155441e-66
1.21417155441e-66
1.21417155441e-66
1.21417155441e-66
1.21417155441e-66
1.21417155441e-66
1.21417155441e-66
1.21417155441e-66
1.21417155441e-66
1.21417155441e-66
1.21417155441e-66
1.21417155441e-66
1.21417155441e-66
1.21417155441e-66
1.21417155441e-66
1.2141715547e-66
1.21417157659e-66
1.21417322646e-66
1.2142841556e-66
1.22162079859e-66
7.45930604932e-27
6.3879406355e-08
0.000497282293666
3.13407473286e-05
1.65963430201e-05
1.2947246867e-05
1.18324434007e-05
1.13968126656e-05
1.10629493266e-05
1.07714321958e-05
1.04955876732e-05
1.02248458173e-05
9.96686250093e-06
9.71803633833e-06
9.47579678527e-06
9.2485834103e-06
9.0309039928e-06
8.8325395509e-06
8.64534478124e-06
8.4749394108e-06
8.32542821674e-06
8.18968212491e-06
8.07155397664e-06
7.97632908877e-06
7.89515367094e-06
7.83222360018e-06
7.78730212169e-06
7.75986103307e-06
1.2141715544e-66
1.2141715544e-66
1.2141715544e-66
1.2141715544e-66
1.2141715544e-66
1.2141715544e-66
1.2141715544e-66
1.2141715544e-66
1.2141715544e-66
1.2141715544e-66
1.2141715544e-66
1.2141715544e-66
1.2141715544e-66
1.2141715544e-66
1.2141715544e-66
1.2141715544e-66
1.2141715544e-66