/*--------------------------------*- C++ -*----------------------------------*\
| =========                 |                                                 |
| \\      /  F ield         | foam-extend: Open Source CFD                    |
|  \\    /   O peration     | Version:     4.1                                |
|   \\  /    A nd           | Web:         http://www.foam-extend.org         |
|    \\/     M anipulation  |                                                 |
\*---------------------------------------------------------------------------*/
FoamFile
{
    version     2.0;
    format      ascii;
    class       volScalarField;
    location    "0.0001";
    object      NPlus;
}
// * * * * * * * * * * * * * * * * * * * * * * * * * * * * * * * * * * * * * //

dimensions      [0 0 0 0 0 0 0];

internalField   nonuniform List<scalar> 
8400
(
9.9986702436e-266
9.99867024367e-266
9.99867024375e-266
9.99867024382e-266
9.99867024389e-266
9.99867024396e-266
9.99867024403e-266
9.9986702441e-266
9.99867024416e-266
9.99867024423e-266
9.99867024429e-266
9.99867024436e-266
9.99867024442e-266
9.99867024448e-266
9.99867024455e-266
9.99867024461e-266
9.99867024467e-266
9.99867024473e-266
9.99867024479e-266
9.99867024485e-266
9.99867024491e-266
9.99867024497e-266
9.99867024503e-266
9.99867024508e-266
9.99867024514e-266
9.9986702452e-266
9.99867024526e-266
9.99867024531e-266
9.99867024537e-266
9.99867024543e-266
9.99867024548e-266
9.99867024554e-266
9.99867024559e-266
9.99867024565e-266
9.9986702457e-266
9.99867024576e-266
9.99867024583e-266
9.99867024707e-266
9.99867034246e-266
9.99867799127e-266
9.99922826646e-266
1.00407901805e-265
1.07247088969e-265
3.39707379019e-24
5.46516254491e-05
0.18665601054
0.426984925516
0.543540055304
0.588187175742
0.604019107158
0.609104866772
0.611344534931
0.612995292086
0.61467534248
0.61636083673
0.618067422329
0.619741016317
0.621486038171
0.623233048179
0.624949485986
0.626559664952
0.628151341355
0.629652956758
0.631029847923
0.632261081323
0.633256744806
0.634134342693
0.634804069042
0.635260457095
0.635728833909
9.99867023617e-266
9.9986702362e-266
9.99867023623e-266
9.99867023625e-266
9.99867023628e-266
9.9986702363e-266
9.99867023633e-266
9.99867023636e-266
9.99867023638e-266
9.99867023641e-266
9.99867023643e-266
9.99867023646e-266
9.99867023648e-266
9.99867023651e-266
9.99867023653e-266
9.99867023655e-266
9.99867023658e-266
9.9986702366e-266
9.99867023663e-266
9.99867023665e-266
9.99867023667e-266
9.9986702367e-266
9.99867023672e-266
9.99867023674e-266
9.99867023677e-266
9.99867023679e-266
9.99867023681e-266
9.99867023684e-266
9.99867023686e-266
9.99867023688e-266
9.99867023691e-266
9.99867023693e-266
9.99867023695e-266
9.99867023698e-266
9.998670237e-266
9.99867023703e-266
9.99867023714e-266
9.99867024396e-266
9.99867080043e-266
9.99871505213e-266
1.00023089888e-265
1.01296494958e-265
4.4760617509e-99
1.08122120163e-10
0.0217779670968
0.31503786335
0.496215862229
0.575919245243
0.602805277139
0.611541313391
0.614286302384
0.615805717855
0.617241129418
0.618709696764
0.62021782879
0.621777223585
0.623389624265
0.624963761952
0.626597517582
0.628194317908
0.62973964252
0.631206517285
0.632576341182
0.633833299133
0.634888870298
0.63585706241
0.636656854775
0.637272817336
0.637689152392
0.638051000762
9.99867023425e-266
9.99867023426e-266
9.99867023428e-266
9.99867023429e-266
9.99867023431e-266
9.99867023432e-266
9.99867023434e-266
9.99867023435e-266
9.99867023437e-266
9.99867023438e-266
9.9986702344e-266
9.99867023441e-266
9.99867023442e-266
9.99867023444e-266
9.99867023445e-266
9.99867023447e-266
9.99867023448e-266
9.99867023449e-266
9.99867023451e-266
9.99867023452e-266
9.99867023453e-266
9.99867023455e-266
9.99867023456e-266
9.99867023458e-266
9.99867023459e-266
9.9986702346e-266
9.99867023462e-266
9.99867023463e-266
9.99867023464e-266
9.99867023466e-266
9.99867023467e-266
9.99867023469e-266
9.9986702347e-266
9.99867023471e-266
9.99867023473e-266
9.99867023474e-266
9.99867023498e-266
9.99867025434e-266
9.99867188504e-266
9.99879632553e-266
1.00089175058e-265
1.02680285135e-265
3.69558030799e-47
9.06533317944e-07
0.0927418801061
0.3729339878
0.525059832546
0.586423647405
0.60719349443
0.613585212652
0.615417828811
0.616734412053
0.61808274875
0.619478062329
0.620909511115
0.622399355538
0.623934225642
0.625507502862
0.627006479625
0.628525783078
0.62998754673
0.631367151027
0.632656464771
0.633837214302
0.634823812584
0.635728612508
0.636474552185
0.637046667406
0.637430364609
0.63774366097
9.99867023343e-266
9.99867023344e-266
9.99867023345e-266
9.99867023347e-266
9.99867023348e-266
9.99867023349e-266
9.9986702335e-266
9.99867023351e-266
9.99867023352e-266
9.99867023353e-266
9.99867023354e-266
9.99867023355e-266
9.99867023356e-266
9.99867023357e-266
9.99867023358e-266
9.99867023359e-266
9.9986702336e-266
9.99867023361e-266
9.99867023362e-266
9.99867023363e-266
9.99867023364e-266
9.99867023365e-266
9.99867023366e-266
9.99867023367e-266
9.99867023368e-266
9.99867023369e-266
9.9986702337e-266
9.9986702337e-266
9.99867023371e-266
9.99867023372e-266
9.99867023373e-266
9.99867023374e-266
9.99867023375e-266
9.99867023376e-266
9.99867023377e-266
9.99867023379e-266
9.99867023415e-266
9.99867026428e-266
9.99867279521e-266
9.99886603292e-266
1.00146425261e-265
1.03707136528e-265
6.4745078169e-41
4.69988193817e-06
0.127678584105
0.397972826499
0.534604677763
0.588422441216
0.607463842409
0.612788794553
0.61454238032
0.615864484813
0.617209902899
0.61860043536
0.620030362995
0.621521271623
0.623063582816
0.624621279996
0.626097538561
0.627588409776
0.629025567992
0.630394332029
0.631669227031
0.632827018529
0.633787375134
0.634668295851
0.635392456862
0.635945332719
0.636314656225
0.636610585256
9.99867023299e-266
9.998670233e-266
9.99867023301e-266
9.99867023301e-266
9.99867023302e-266
9.99867023303e-266
9.99867023304e-266
9.99867023305e-266
9.99867023306e-266
9.99867023306e-266
9.99867023307e-266
9.99867023308e-266
9.99867023309e-266
9.9986702331e-266
9.9986702331e-266
9.99867023311e-266
9.99867023312e-266
9.99867023313e-266
9.99867023313e-266
9.99867023314e-266
9.99867023315e-266
9.99867023316e-266
9.99867023316e-266
9.99867023317e-266
9.99867023318e-266
9.99867023319e-266
9.99867023319e-266
9.9986702332e-266
9.99867023321e-266
9.99867023322e-266
9.99867023322e-266
9.99867023323e-266
9.99867023324e-266
9.99867023325e-266
9.99867023326e-266
9.99867023327e-266
9.99867023369e-266
9.99867026875e-266
9.99867322108e-266
9.9988989181e-266
1.00173791079e-265
1.04156265409e-265
2.45316314022e-34
7.66512100078e-06
0.138636302668
0.402315850769
0.535462446796
0.588850942242
0.605888540119
0.610706792771
0.612558472971
0.613894780066
0.615291438879
0.616702755529
0.618163683191
0.619671920663
0.621232094398
0.622746906414
0.624292533238
0.625792016839
0.627232505153
0.628604924107
0.629884975863
0.631040815609
0.632001052088
0.632879905939
0.633608316586
0.634171052293
0.634548235867
0.634848085256
9.99867023271e-266
9.99867023272e-266
9.99867023272e-266
9.99867023273e-266
9.99867023274e-266
9.99867023275e-266
9.99867023275e-266
9.99867023276e-266
9.99867023276e-266
9.99867023277e-266
9.99867023278e-266
9.99867023278e-266
9.99867023279e-266
9.9986702328e-266
9.9986702328e-266
9.99867023281e-266
9.99867023282e-266
9.99867023282e-266
9.99867023283e-266
9.99867023283e-266
9.99867023284e-266
9.99867023285e-266
9.99867023285e-266
9.99867023286e-266
9.99867023287e-266
9.99867023287e-266
9.99867023288e-266
9.99867023289e-266
9.99867023289e-266
9.9986702329e-266
9.9986702329e-266
9.99867023291e-266
9.99867023292e-266
9.99867023292e-266
9.99867023293e-266
9.99867023294e-266
9.99867023337e-266
9.99867026892e-266
9.99867326249e-266
9.99890166105e-266
1.00175623849e-265
1.04198641305e-265
3.34697331186e-34
7.92494575471e-06
0.139299777943
0.400461694203
0.534925428416
0.58500413395
0.602912383581
0.607937019306
0.609754702909
0.611141120446
0.612564712851
0.614011205901
0.615499480474
0.617038451969
0.618634250795
0.620176003796
0.621756769065
0.623281729853
0.624746941842
0.626144016432
0.627446545966
0.628564706749
0.629602089626
0.630491464728
0.631226289597
0.631790435449
0.632172710965
0.632478987201
9.99867023252e-266
9.99867023252e-266
9.99867023253e-266
9.99867023254e-266
9.99867023254e-266
9.99867023255e-266
9.99867023255e-266
9.99867023256e-266
9.99867023257e-266
9.99867023257e-266
9.99867023258e-266
9.99867023258e-266
9.99867023259e-266
9.99867023259e-266
9.9986702326e-266
9.9986702326e-266
9.99867023261e-266
9.99867023261e-266
9.99867023262e-266
9.99867023262e-266
9.99867023263e-266
9.99867023264e-266
9.99867023264e-266
9.99867023265e-266
9.99867023265e-266
9.99867023266e-266
9.99867023266e-266
9.99867023267e-266
9.99867023267e-266
9.99867023268e-266
9.99867023268e-266
9.99867023269e-266
9.99867023269e-266
9.9986702327e-266
9.99867023271e-266
9.99867023272e-266
9.99867023311e-266
9.99867026644e-266
9.99867307744e-266
9.99888821519e-266
1.00165721446e-265
1.04041974554e-265
8.62213481359e-35
6.61160550853e-06
0.133261860017
0.39632277154
0.528389450977
0.582211384376
0.598997310258
0.604295702885
0.606197435551
0.607617680417
0.609118268643
0.610643588872
0.612192850229
0.613781314629
0.615409793823
0.616985517453
0.618603484381
0.620166734549
0.621678279708
0.623111487363
0.624446292204
0.62558915096
0.626645507334
0.627544141807
0.628282541131
0.628856172191
0.629249975051
0.629570524634
9.99867023238e-266
9.99867023238e-266
9.99867023239e-266
9.99867023239e-266
9.9986702324e-266
9.9986702324e-266
9.99867023241e-266
9.99867023241e-266
9.99867023242e-266
9.99867023242e-266
9.99867023243e-266
9.99867023243e-266
9.99867023244e-266
9.99867023244e-266
9.99867023245e-266
9.99867023245e-266
9.99867023246e-266
9.99867023246e-266
9.99867023247e-266
9.99867023247e-266
9.99867023248e-266
9.99867023248e-266
9.99867023248e-266
9.99867023249e-266
9.99867023249e-266
9.9986702325e-266
9.9986702325e-266
9.99867023251e-266
9.99867023251e-266
9.99867023252e-266
9.99867023252e-266
9.99867023253e-266
9.99867023253e-266
9.99867023254e-266
9.99867023254e-266
9.99867023255e-266
9.99867023291e-266
9.99867026316e-266
9.99867282373e-266
9.99886956043e-266
1.00149684369e-265
1.03772227347e-265
7.39273029116e-41
4.71943588157e-06
0.124038482717
0.38715185364
0.523219948736
0.576212497609
0.594795813718
0.600022168538
0.601961046122
0.603461352
0.60503603489
0.606625064409
0.608241113452
0.609896791733
0.611586286698
0.613215562602
0.614878062595
0.616489760705
0.618045890543
0.619519565568
0.620828525114
0.622066949441
0.623147902058
0.624062450819
0.624813873607
0.625398060634
0.625804535689
0.626137485537
9.99867023227e-266
9.99867023228e-266
9.99867023228e-266
9.99867023229e-266
9.99867023229e-266
9.99867023229e-266
9.9986702323e-266
9.9986702323e-266
9.99867023231e-266
9.99867023231e-266
9.99867023232e-266
9.99867023232e-266
9.99867023232e-266
9.99867023233e-266
9.99867023233e-266
9.99867023234e-266
9.99867023234e-266
9.99867023235e-266
9.99867023235e-266
9.99867023235e-266
9.99867023236e-266
9.99867023236e-266
9.99867023237e-266
9.99867023237e-266
9.99867023237e-266
9.99867023238e-266
9.99867023238e-266
9.99867023239e-266
9.99867023239e-266
9.9986702324e-266
9.9986702324e-266
9.9986702324e-266
9.99867023241e-266
9.99867023241e-266
9.99867023242e-266
9.99867023243e-266
9.99867023274e-266
9.99867025933e-266
9.99867251075e-266
9.99884493617e-266
1.0012883238e-265
1.03445454948e-265
2.7989289212e-41
3.07990347368e-06
0.11327007526
0.378001443416
0.514736902508
0.57086508582
0.589517269207
0.594939504062
0.5970158999
0.598671697783
0.60027773754
0.601955714522
0.603658663218
0.605384146806
0.607137059869
0.608834225321
0.610572777264
0.612253532408
0.613866069235
0.615387625463
0.61673757982
0.618009927505
0.619125625926
0.620071690921
0.620843725067
0.621441997164
0.621854890551
0.622183005558
9.99867023219e-266
9.99867023219e-266
9.9986702322e-266
9.9986702322e-266
9.9986702322e-266
9.99867023221e-266
9.99867023221e-266
9.99867023222e-266
9.99867023222e-266
9.99867023222e-266
9.99867023223e-266
9.99867023223e-266
9.99867023224e-266
9.99867023224e-266
9.99867023224e-266
9.99867023225e-266
9.99867023225e-266
9.99867023225e-266
9.99867023226e-266
9.99867023226e-266
9.99867023227e-266
9.99867023227e-266
9.99867023227e-266
9.99867023228e-266
9.99867023228e-266
9.99867023229e-266
9.99867023229e-266
9.99867023229e-266
9.9986702323e-266
9.9986702323e-266
9.9986702323e-266
9.99867023231e-266
9.99867023231e-266
9.99867023232e-266
9.99867023232e-266
9.99867023233e-266
9.9986702326e-266
9.99867025539e-266
9.99867218536e-266
9.99882024986e-266
1.00108307776e-265
1.03104713676e-265
9.35045359794e-47
1.83210109143e-06
0.100038826172
0.366983170388
0.507982340744
0.563379106542
0.583359695896
0.589341621506
0.591563623445
0.593253279886
0.594919700775
0.596679422278
0.598467305788
0.600288264684
0.602123240026
0.603906276775
0.605707292544
0.607453377557
0.609123300689
0.6106410838
0.612110800812
0.613433679227
0.614590891318
0.615572791973
0.616367286824
0.616975173939
0.617390625105
0.617712576587
9.99867023212e-266
9.99867023212e-266
9.99867023213e-266
9.99867023213e-266
9.99867023214e-266
9.99867023214e-266
9.99867023214e-266
9.99867023215e-266
9.99867023215e-266
9.99867023215e-266
9.99867023216e-266
9.99867023216e-266
9.99867023216e-266
9.99867023217e-266
9.99867023217e-266
9.99867023217e-266
9.99867023218e-266
9.99867023218e-266
9.99867023218e-266
9.99867023219e-266
9.99867023219e-266
9.9986702322e-266
9.9986702322e-266
9.9986702322e-266
9.99867023221e-266
9.99867023221e-266
9.99867023221e-266
9.99867023222e-266
9.99867023222e-266
9.99867023222e-266
9.99867023223e-266
9.99867023223e-266
9.99867023223e-266
9.99867023224e-266
9.99867023224e-266
9.99867023225e-266
9.99867023248e-266
9.99867025224e-266
9.9986719236e-266
9.99879977642e-266
1.00090840022e-265
1.02773098194e-265
4.36746221063e-47
1.00195156937e-06
0.0866197992245
0.353989251388
0.49832920399
0.555590109724
0.576652478007
0.583034303183
0.585433173923
0.587251819561
0.589016823151
0.590869699138
0.592759565451
0.594657415153
0.596511763015
0.598428396666
0.600304020218
0.602122572894
0.603863045512
0.605434785805
0.606950699671
0.608312794736
0.609507166457
0.610524659711
0.611357050265
0.611996310317
0.612366651429
0.612763701537
9.99867023206e-266
9.99867023207e-266
9.99867023207e-266
9.99867023208e-266
9.99867023208e-266
9.99867023208e-266
9.99867023209e-266
9.99867023209e-266
9.99867023209e-266
9.9986702321e-266
9.9986702321e-266
9.9986702321e-266
9.9986702321e-266
9.99867023211e-266
9.99867023211e-266
9.99867023211e-266
9.99867023212e-266
9.99867023212e-266
9.99867023212e-266
9.99867023213e-266
9.99867023213e-266
9.99867023213e-266
9.99867023214e-266
9.99867023214e-266
9.99867023214e-266
9.99867023215e-266
9.99867023215e-266
9.99867023215e-266
9.99867023216e-266
9.99867023216e-266
9.99867023216e-266
9.99867023217e-266
9.99867023217e-266
9.99867023217e-266
9.99867023218e-266
9.99867023218e-266
9.99867023238e-266
9.99867024915e-266
9.99867167169e-266
9.99878114397e-266
1.00075299659e-265
1.02459008139e-265
5.98014392587e-63
4.61085194192e-07
0.0734337919932
0.340065107887
0.487628697092
0.548951924598
0.568941233858
0.575963623254
0.578602180642
0.580604175971
0.582510808984
0.584478825476
0.586457368695
0.588451751681
0.59039152766
0.59238636406
0.594349049426
0.596251404633
0.598006821575
0.599708120544
0.60127344265
0.602683819207
0.603917670826
0.604972492706
0.605771895144
0.606436351689
0.606888339659
0.607224895302
9.99867023202e-266
9.99867023202e-266
9.99867023202e-266
9.99867023203e-266
9.99867023203e-266
9.99867023203e-266
9.99867023204e-266
9.99867023204e-266
9.99867023204e-266
9.99867023205e-266
9.99867023205e-266
9.99867023205e-266
9.99867023205e-266
9.99867023206e-266
9.99867023206e-266
9.99867023206e-266
9.99867023207e-266
9.99867023207e-266
9.99867023207e-266
9.99867023208e-266
9.99867023208e-266
9.99867023208e-266
9.99867023209e-266
9.99867023209e-266
9.99867023209e-266
9.99867023209e-266
9.9986702321e-266
9.9986702321e-266
9.9986702321e-266
9.99867023211e-266
9.99867023211e-266
9.99867023211e-266
9.99867023212e-266
9.99867023212e-266
9.99867023212e-266
9.99867023213e-266
9.9986702323e-266
9.9986702463e-266
9.99867143581e-266
9.99876427663e-266
1.00061752504e-265
1.02167547858e-265
3.87799561044e-63
1.90083681908e-07
0.0592348360521
0.326314190979
0.475989599811
0.539204527558
0.561034263935
0.568506159709
0.571194592034
0.573279803466
0.57528752086
0.577393967138
0.579509982823
0.581632974572
0.583687656128
0.585786090122
0.587841118359
0.589828015321
0.591662035963
0.593442427148
0.595074588868
0.596541733302
0.597761895453
0.59885615944
0.599750521112
0.60043195698
0.600896879522
0.601237929678
9.99867023198e-266
9.99867023198e-266
9.99867023198e-266
9.99867023199e-266
9.99867023199e-266
9.99867023199e-266
9.998670232e-266
9.998670232e-266
9.998670232e-266
9.998670232e-266
9.99867023201e-266
9.99867023201e-266
9.99867023201e-266
9.99867023202e-266
9.99867023202e-266
9.99867023202e-266
9.99867023202e-266
9.99867023203e-266
9.99867023203e-266
9.99867023203e-266
9.99867023204e-266
9.99867023204e-266
9.99867023204e-266
9.99867023204e-266
9.99867023205e-266
9.99867023205e-266
9.99867023205e-266
9.99867023206e-266
9.99867023206e-266
9.99867023206e-266
9.99867023207e-266
9.99867023207e-266
9.99867023207e-266
9.99867023208e-266
9.99867023208e-266
9.99867023208e-266
9.99867023223e-266
9.9986702439e-266
9.99867122878e-266
9.99874856849e-266
1.00049047476e-265
1.01903669705e-265
2.04140708165e-63
5.13139687885e-08
0.0437839924339
0.312281521789
0.464169245803
0.528965383312
0.552256109338
0.560225622281
0.563209529124
0.565431499734
0.567566192113
0.569780335281
0.572008844249
0.574189181732
0.576424181593
0.57863833875
0.580791994442
0.582808544587
0.584790459688
0.586644803688
0.58834935102
0.589829449119
0.591174822941
0.5923110906
0.593228422037
0.593925225116
0.594395582475
0.594730804163
9.99867023194e-266
9.99867023195e-266
9.99867023195e-266
9.99867023195e-266
9.99867023195e-266
9.99867023196e-266
9.99867023196e-266
9.99867023196e-266
9.99867023197e-266
9.99867023197e-266
9.99867023197e-266
9.99867023197e-266
9.99867023198e-266
9.99867023198e-266
9.99867023198e-266
9.99867023198e-266
9.99867023199e-266
9.99867023199e-266
9.99867023199e-266
9.998670232e-266
9.998670232e-266
9.998670232e-266
9.998670232e-266
9.99867023201e-266
9.99867023201e-266
9.99867023201e-266
9.99867023202e-266
9.99867023202e-266
9.99867023202e-266
9.99867023202e-266
9.99867023203e-266
9.99867023203e-266
9.99867023203e-266
9.99867023204e-266
9.99867023204e-266
9.99867023204e-266
9.99867023217e-266
9.99867024209e-266
9.99867106845e-266
9.99873646894e-266
1.0004018818e-265
1.0169809617e-265
4.60734422986e-64
1.10502724903e-08
0.031647427458
0.295595809361
0.452347084695
0.519011425914
0.543168317035
0.551260207542
0.554448633205
0.556858357742
0.55916284033
0.56154386843
0.563920023762
0.566245973541
0.568606335158
0.570932259474
0.573127582053
0.575302410841
0.577365154943
0.579299417251
0.581024042351
0.582636656793
0.584043064686
0.585229003199
0.586182608504
0.586901113018
0.587326888803
0.587735186225
9.99867023191e-266
9.99867023192e-266
9.99867023192e-266
9.99867023192e-266
9.99867023192e-266
9.99867023193e-266
9.99867023193e-266
9.99867023193e-266
9.99867023194e-266
9.99867023194e-266
9.99867023194e-266
9.99867023194e-266
9.99867023195e-266
9.99867023195e-266
9.99867023195e-266
9.99867023195e-266
9.99867023196e-266
9.99867023196e-266
9.99867023196e-266
9.99867023196e-266
9.99867023197e-266
9.99867023197e-266
9.99867023197e-266
9.99867023197e-266
9.99867023198e-266
9.99867023198e-266
9.99867023198e-266
9.99867023199e-266
9.99867023199e-266
9.99867023199e-266
9.99867023199e-266
9.998670232e-266
9.998670232e-266
9.998670232e-266
9.99867023201e-266
9.99867023201e-266
9.99867023212e-266
9.99867024053e-266
9.99867093125e-266
9.99872582192e-266
1.00031628861e-265
1.01540235257e-265
5.275491474e-99
1.16133452876e-09
0.0191193280334
0.280165817479
0.439149258337
0.507965180789
0.532630365231
0.541439309104
0.545048622488
0.547659547228
0.550146083259
0.552688601257
0.555228257439
0.557700285262
0.560204615549
0.562670875756
0.564985580777
0.567256174773
0.569412124815
0.571368115403
0.573233994833
0.574910096154
0.576380866512
0.577614907468
0.578546724716
0.579296189337
0.579805981322
0.58015637098
9.99867023189e-266
9.99867023189e-266
9.99867023189e-266
9.9986702319e-266
9.9986702319e-266
9.9986702319e-266
9.9986702319e-266
9.99867023191e-266
9.99867023191e-266
9.99867023191e-266
9.99867023191e-266
9.99867023192e-266
9.99867023192e-266
9.99867023192e-266
9.99867023192e-266
9.99867023193e-266
9.99867023193e-266
9.99867023193e-266
9.99867023193e-266
9.99867023194e-266
9.99867023194e-266
9.99867023194e-266
9.99867023194e-266
9.99867023195e-266
9.99867023195e-266
9.99867023195e-266
9.99867023196e-266
9.99867023196e-266
9.99867023196e-266
9.99867023196e-266
9.99867023197e-266
9.99867023197e-266
9.99867023197e-266
9.99867023198e-266
9.99867023198e-266
9.99867023198e-266
9.99867023208e-266
9.99867023924e-266
9.99867081344e-266
9.99871634331e-266
1.00023903318e-265
1.01404022824e-265
4.39059490043e-99
3.55206758511e-11
0.00928994479505
0.26301188555
0.425874384573
0.495561622118
0.522452693094
0.531498072017
0.535078307618
0.537801791488
0.540523664355
0.543242635281
0.545884078741
0.548562580435
0.551220729709
0.553758527116
0.556265915914
0.558662661992
0.560864308125
0.562982483105
0.564929430327
0.566681682431
0.568139012472
0.569421645894
0.570452541055
0.571239611917
0.57178149776
0.572147886258
9.99867023187e-266
9.99867023187e-266
9.99867023187e-266
9.99867023187e-266
9.99867023188e-266
9.99867023188e-266
9.99867023188e-266
9.99867023188e-266
9.99867023189e-266
9.99867023189e-266
9.99867023189e-266
9.99867023189e-266
9.9986702319e-266
9.9986702319e-266
9.9986702319e-266
9.9986702319e-266
9.99867023191e-266
9.99867023191e-266
9.99867023191e-266
9.99867023191e-266
9.99867023192e-266
9.99867023192e-266
9.99867023192e-266
9.99867023192e-266
9.99867023193e-266
9.99867023193e-266
9.99867023193e-266
9.99867023193e-266
9.99867023194e-266
9.99867023194e-266
9.99867023194e-266
9.99867023194e-266
9.99867023195e-266
9.99867023195e-266
9.99867023195e-266
9.99867023196e-266
9.99867023204e-266
9.99867023825e-266
9.99867072288e-266
9.99870844419e-266
1.00017574731e-265
1.01290729377e-265
3.78996701788e-99
1.22154616799e-13
0.00329312220947
0.247566033031
0.411456154364
0.483814040304
0.510681062644
0.520797493353
0.524592956931
0.527459689939
0.530356932385
0.533245365491
0.536062703351
0.538911245441
0.541645390861
0.544379214561
0.547014577336
0.549466635995
0.551844499572
0.554047420046
0.55601800692
0.557846756697
0.559437691929
0.560774940589
0.561857623267
0.562681549174
0.56318113815
0.563557649343
9.99867023185e-266
9.99867023185e-266
9.99867023185e-266
9.99867023185e-266
9.99867023186e-266
9.99867023186e-266
9.99867023186e-266
9.99867023186e-266
9.99867023187e-266
9.99867023187e-266
9.99867023187e-266
9.99867023187e-266
9.99867023187e-266
9.99867023188e-266
9.99867023188e-266
9.99867023188e-266
9.99867023188e-266
9.99867023189e-266
9.99867023189e-266
9.99867023189e-266
9.99867023189e-266
9.9986702319e-266
9.9986702319e-266
9.9986702319e-266
9.9986702319e-266
9.99867023191e-266
9.99867023191e-266
9.99867023191e-266
9.99867023191e-266
9.99867023192e-266
9.99867023192e-266
9.99867023192e-266
9.99867023193e-266
9.99867023193e-266
9.99867023193e-266
9.99867023194e-266
9.99867023201e-266
9.9986702375e-266
9.99867066097e-266
9.99870316202e-266
1.00012809791e-265
1.01197218922e-265
3.22883536791e-99
1.24091189441e-15
0.00156120595815
0.230271720226
0.396516177071
0.471217572726
0.499338732619
0.509264000964
0.513350245487
0.516515795902
0.51959853487
0.52260511156
0.525646260501
0.528668606905
0.531569570091
0.534451897802
0.537170818666
0.53981499024
0.542301960445
0.544550774347
0.546671875314
0.54856697353
0.550224796231
0.551550330098
0.552682495214
0.553543600343
0.554136692356
0.554507838246
9.99867023183e-266
9.99867023183e-266
9.99867023183e-266
9.99867023184e-266
9.99867023184e-266
9.99867023184e-266
9.99867023184e-266
9.99867023184e-266
9.99867023185e-266
9.99867023185e-266
9.99867023185e-266
9.99867023185e-266
9.99867023186e-266
9.99867023186e-266
9.99867023186e-266
9.99867023186e-266
9.99867023187e-266
9.99867023187e-266
9.99867023187e-266
9.99867023187e-266
9.99867023188e-266
9.99867023188e-266
9.99867023188e-266
9.99867023188e-266
9.99867023189e-266
9.99867023189e-266
9.99867023189e-266
9.99867023189e-266
9.9986702319e-266
9.9986702319e-266
9.9986702319e-266
9.9986702319e-266
9.99867023191e-266
9.99867023191e-266
9.99867023191e-266
9.99867023192e-266
9.99867023198e-266
9.99867023681e-266
9.99867060755e-266
9.99869853817e-266
1.00008573951e-265
1.01109874656e-265
2.68468750371e-99
4.9985876944e-17
0.000778871314843
0.214191677843
0.38161766322
0.457772569962
0.486824127948
0.497286899967
0.50165924455
0.504993991538
0.508277101362
0.511479020333
0.51470522455
0.517825969534
0.520955506853
0.523998011821
0.526857966167
0.529638301047
0.532175200366
0.534587897986
0.536797672759
0.538705949059
0.540436610408
0.54189604388
0.54307472303
0.543972909987
0.544524547031
0.544917511812
9.99867023181e-266
9.99867023182e-266
9.99867023182e-266
9.99867023182e-266
9.99867023182e-266
9.99867023182e-266
9.99867023183e-266
9.99867023183e-266
9.99867023183e-266
9.99867023183e-266
9.99867023184e-266
9.99867023184e-266
9.99867023184e-266
9.99867023184e-266
9.99867023184e-266
9.99867023185e-266
9.99867023185e-266
9.99867023185e-266
9.99867023185e-266
9.99867023186e-266
9.99867023186e-266
9.99867023186e-266
9.99867023186e-266
9.99867023187e-266
9.99867023187e-266
9.99867023187e-266
9.99867023187e-266
9.99867023188e-266
9.99867023188e-266
9.99867023188e-266
9.99867023189e-266
9.99867023189e-266
9.99867023189e-266
9.99867023189e-266
9.9986702319e-266
9.9986702319e-266
9.99867023196e-266
9.99867023624e-266
9.99867056468e-266
9.99869505122e-266
1.00004631623e-265
1.01035100158e-265
2.31883225518e-99
5.13598096485e-18
0.000478112669697
0.199176476486
0.366180626393
0.444473030692
0.473128385217
0.48416160632
0.489103506819
0.492786990369
0.496313930223
0.49974656457
0.503183087396
0.506504182541
0.509818108877
0.512967942762
0.516045873381
0.518896415243
0.521617756702
0.524139815589
0.526362539521
0.52842202903
0.530217967851
0.53166400566
0.532897106209
0.53384244593
0.534492066926
0.534897650681
9.9986702318e-266
9.9986702318e-266
9.9986702318e-266
9.99867023181e-266
9.99867023181e-266
9.99867023181e-266
9.99867023181e-266
9.99867023181e-266
9.99867023182e-266
9.99867023182e-266
9.99867023182e-266
9.99867023182e-266
9.99867023182e-266
9.99867023183e-266
9.99867023183e-266
9.99867023183e-266
9.99867023183e-266
9.99867023184e-266
9.99867023184e-266
9.99867023184e-266
9.99867023184e-266
9.99867023185e-266
9.99867023185e-266
9.99867023185e-266
9.99867023185e-266
9.99867023186e-266
9.99867023186e-266
9.99867023186e-266
9.99867023186e-266
9.99867023187e-266
9.99867023187e-266
9.99867023187e-266
9.99867023188e-266
9.99867023188e-266
9.99867023188e-266
9.99867023189e-266
9.99867023194e-266
9.9986702358e-266
9.99867053219e-266
9.99869279812e-266
1.00002073616e-265
1.00965891959e-265
1.70182105229e-99
9.57433091877e-19
0.000312384139696
0.183349327472
0.351268854605
0.428871935987
0.459902655661
0.471206791719
0.476279676691
0.480171609052
0.48387902991
0.48755604484
0.491115966685
0.494682956167
0.498098076639
0.501468176141
0.504634159955
0.507691751268
0.510471257476
0.51310262952
0.515503528532
0.517569549272
0.519441217913
0.521026233436
0.522312644955
0.523224762637
0.523919341299
0.524342331706
9.99867023179e-266
9.99867023179e-266
9.99867023179e-266
9.99867023179e-266
9.99867023179e-266
9.9986702318e-266
9.9986702318e-266
9.9986702318e-266
9.9986702318e-266
9.9986702318e-266
9.99867023181e-266
9.99867023181e-266
9.99867023181e-266
9.99867023181e-266
9.99867023182e-266
9.99867023182e-266
9.99867023182e-266
9.99867023182e-266
9.99867023183e-266
9.99867023183e-266
9.99867023183e-266
9.99867023183e-266
9.99867023184e-266
9.99867023184e-266
9.99867023184e-266
9.99867023184e-266
9.99867023185e-266
9.99867023185e-266
9.99867023185e-266
9.99867023185e-266
9.99867023186e-266
9.99867023186e-266
9.99867023186e-266
9.99867023187e-266
9.99867023187e-266
9.99867023187e-266
9.99867023192e-266
9.99867023543e-266
9.99867050418e-266
9.99869076137e-266
1.00000527503e-265
1.00901321191e-265
1.47214084189e-99
1.74761132005e-19
0.000209394983073
0.167730342502
0.337310780161
0.414694977633
0.445880821258
0.45730334879
0.462820212802
0.466946307772
0.470869370773
0.47478351608
0.478562759008
0.482264302424
0.485929050997
0.489415998719
0.492807742952
0.495929870717
0.498914733184
0.501660663757
0.504085419418
0.50630955563
0.508257084284
0.509827329898
0.511172292485
0.512209412935
0.512939092988
0.51337854385
9.99867023177e-266
9.99867023178e-266
9.99867023178e-266
9.99867023178e-266
9.99867023178e-266
9.99867023178e-266
9.99867023179e-266
9.99867023179e-266
9.99867023179e-266
9.99867023179e-266
9.99867023179e-266
9.9986702318e-266
9.9986702318e-266
9.9986702318e-266
9.9986702318e-266
9.99867023181e-266
9.99867023181e-266
9.99867023181e-266
9.99867023181e-266
9.99867023182e-266
9.99867023182e-266
9.99867023182e-266
9.99867023182e-266
9.99867023183e-266
9.99867023183e-266
9.99867023183e-266
9.99867023183e-266
9.99867023184e-266
9.99867023184e-266
9.99867023184e-266
9.99867023185e-266
9.99867023185e-266
9.99867023185e-266
9.99867023186e-266
9.99867023186e-266
9.99867023186e-266
9.99867023191e-266
9.99867023513e-266
9.99867048025e-266
9.99868898228e-266
9.99994497318e-266
1.00847449741e-265
1.32130172374e-99
4.69735426737e-20
0.000150781642228
0.154226592469
0.320166520821
0.400543221865
0.430919498563
0.443075675778
0.448799166631
0.45313382154
0.45736585083
0.461445988208
0.465511406485
0.469419654729
0.473203352561
0.476918688589
0.480410716909
0.483750553543
0.486800644023
0.489670312474
0.492261155378
0.494516783962
0.49653615256