/*--------------------------------*- C++ -*----------------------------------*\
| =========                 |                                                 |
| \\      /  F ield         | foam-extend: Open Source CFD                    |
|  \\    /   O peration     | Version:     4.1                                |
|   \\  /    A nd           | Web:         http://www.foam-extend.org         |
|    \\/     M anipulation  |                                                 |
\*---------------------------------------------------------------------------*/
FoamFile
{
    version     2.0;
    format      ascii;
    class       volScalarField;
    location    "0.0001";
    object      O;
}
// * * * * * * * * * * * * * * * * * * * * * * * * * * * * * * * * * * * * * //

dimensions      [0 0 0 0 0 0 0];

internalField   nonuniform List<scalar> 
8400
(
7.2319983306e-54
7.23199833064e-54
7.23199833068e-54
7.23199833072e-54
7.23199833076e-54
7.2319983308e-54
7.23199833084e-54
7.23199833088e-54
7.23199833092e-54
7.23199833095e-54
7.23199833099e-54
7.23199833103e-54
7.23199833106e-54
7.2319983311e-54
7.23199833114e-54
7.23199833117e-54
7.2319983312e-54
7.23199833124e-54
7.23199833127e-54
7.23199833131e-54
7.23199833134e-54
7.23199833137e-54
7.23199833141e-54
7.23199833144e-54
7.23199833147e-54
7.2319983315e-54
7.23199833154e-54
7.23199833157e-54
7.2319983316e-54
7.23199833163e-54
7.23199833166e-54
7.23199833169e-54
7.23199833173e-54
7.23199833176e-54
7.23199833179e-54
7.23199833182e-54
7.23199833186e-54
7.23199833256e-54
7.23199838643e-54
7.23200270609e-54
7.23231347363e-54
7.25578553675e-54
7.64202817414e-54
0.0199487069105
0.231860228029
0.195553291939
0.135064248359
0.0959595137035
0.0784746237681
0.0718615967309
0.0697210612248
0.068801088878
0.068129876551
0.0674454460432
0.0667574730262
0.0660589574098
0.0653721726842
0.0646539831173
0.0639328606259
0.0632225168347
0.062554948386
0.0618930529142
0.0612674425151
0.0606926315021
0.0601776481323
0.0597607123928
0.0593922328097
0.0591108064883
0.0589187118682
0.0587148077563
7.2319983264e-54
7.23199832642e-54
7.23199832644e-54
7.23199832645e-54
7.23199832647e-54
7.23199832648e-54
7.23199832649e-54
7.23199832651e-54
7.23199832652e-54
7.23199832654e-54
7.23199832655e-54
7.23199832657e-54
7.23199832658e-54
7.23199832659e-54
7.23199832661e-54
7.23199832662e-54
7.23199832663e-54
7.23199832665e-54
7.23199832666e-54
7.23199832667e-54
7.23199832669e-54
7.2319983267e-54
7.23199832671e-54
7.23199832673e-54
7.23199832674e-54
7.23199832675e-54
7.23199832677e-54
7.23199832678e-54
7.23199832679e-54
7.23199832681e-54
7.23199832682e-54
7.23199832683e-54
7.23199832685e-54
7.23199832686e-54
7.23199832687e-54
7.23199832689e-54
7.23199832695e-54
7.2319983308e-54
7.23199864507e-54
7.23202363619e-54
7.23405330954e-54
7.30596877562e-54
1.21708906856e-18
0.228117094351
0.228137453949
0.165915845896
0.112865625392
0.0835252865573
0.0724599554861
0.0687351648294
0.0675749631006
0.0669479679631
0.0663578299669
0.065753586603
0.0651319302648
0.0644879647262
0.0638202526553
0.0631671264908
0.0624876795637
0.0618225096115
0.0611780706387
0.0605650110044
0.0599914549906
0.0594640956901
0.0590207530135
0.058612872246
0.0582754104027
0.0580150643724
0.0578390121343
0.0576814544111
7.23199832532e-54
7.23199832533e-54
7.23199832533e-54
7.23199832534e-54
7.23199832535e-54
7.23199832536e-54
7.23199832537e-54
7.23199832538e-54
7.23199832539e-54
7.23199832539e-54
7.2319983254e-54
7.23199832541e-54
7.23199832542e-54
7.23199832543e-54
7.23199832543e-54
7.23199832544e-54
7.23199832545e-54
7.23199832546e-54
7.23199832546e-54
7.23199832547e-54
7.23199832548e-54
7.23199832549e-54
7.2319983255e-54
7.2319983255e-54
7.23199832551e-54
7.23199832552e-54
7.23199832553e-54
7.23199832553e-54
7.23199832554e-54
7.23199832555e-54
7.23199832556e-54
7.23199832557e-54
7.23199832557e-54
7.23199832558e-54
7.23199832559e-54
7.2319983256e-54
7.23199832573e-54
7.23199833667e-54
7.2319992576e-54
7.23206953528e-54
7.23778546507e-54
7.38411823323e-54
9.15745814469e-08
0.231270461043
0.214514127322
0.150651169554
0.102774847032
0.0792959462442
0.0706118708004
0.0678790003334
0.0671059894178
0.0665635644783
0.0660089740979
0.0654344498533
0.0648442342278
0.0642285465608
0.0635926530748
0.0629389806743
0.0623152691113
0.0616820913235
0.0610724614352
0.0604960214417
0.0599563108327
0.0594610513063
0.0590467561635
0.0586656966865
0.0583510845529
0.0581093634162
0.0579472436321
0.0578115122285
7.23199832486e-54
7.23199832486e-54
7.23199832487e-54
7.23199832488e-54
7.23199832488e-54
7.23199832489e-54
7.23199832489e-54
7.2319983249e-54
7.23199832491e-54
7.23199832491e-54
7.23199832492e-54
7.23199832492e-54
7.23199832493e-54
7.23199832493e-54
7.23199832494e-54
7.23199832495e-54
7.23199832495e-54
7.23199832496e-54
7.23199832496e-54
7.23199832497e-54
7.23199832497e-54
7.23199832498e-54
7.23199832498e-54
7.23199832499e-54
7.231998325e-54
7.231998325e-54
7.23199832501e-54
7.23199832501e-54
7.23199832502e-54
7.23199832502e-54
7.23199832503e-54
7.23199832503e-54
7.23199832504e-54
7.23199832504e-54
7.23199832505e-54
7.23199832506e-54
7.23199832526e-54
7.23199834228e-54
7.23199977162e-54
7.23210890249e-54
7.24101866645e-54
7.44210959693e-54
1.79378884437e-05
0.231535064743
0.207656137859
0.143603852863
0.0993055152885
0.0784521599897
0.0704754976856
0.0682002677811
0.067466066364
0.0669228828827
0.0663705055968
0.0657991390392
0.0652103541236
0.0645950203041
0.0639562867974
0.0633101541625
0.0626968822779
0.0620767881637
0.0614781451484
0.0609068936678
0.0603736854936
0.0598886555144
0.0594859593419
0.0591158525503
0.0588110870852
0.058577938782
0.0584222530981
0.0582943114267
7.23199832461e-54
7.23199832461e-54
7.23199832462e-54
7.23199832462e-54
7.23199832463e-54
7.23199832463e-54
7.23199832464e-54
7.23199832464e-54
7.23199832465e-54
7.23199832465e-54
7.23199832465e-54
7.23199832466e-54
7.23199832466e-54
7.23199832467e-54
7.23199832467e-54
7.23199832468e-54
7.23199832468e-54
7.23199832468e-54
7.23199832469e-54
7.23199832469e-54
7.2319983247e-54
7.2319983247e-54
7.23199832471e-54
7.23199832471e-54
7.23199832471e-54
7.23199832472e-54
7.23199832472e-54
7.23199832473e-54
7.23199832473e-54
7.23199832474e-54
7.23199832474e-54
7.23199832474e-54
7.23199832475e-54
7.23199832475e-54
7.23199832476e-54
7.23199832476e-54
7.231998325e-54
7.2319983448e-54
7.23200001213e-54
7.23212747437e-54
7.24256414918e-54
7.46747412042e-54
0.000134574609206
0.23160493681
0.205464555675
0.142353079461
0.0989714319449
0.0782600369238
0.0711055769414
0.0690510694919
0.068281257268
0.0677341270993
0.0671625351905
0.0665842249296
0.065984384793
0.06536331199
0.0647191568267
0.0640923302767
0.0634522770779
0.0628301180608
0.0622315854182
0.0616599968821
0.0611262110114
0.0606433104884
0.0602416629705
0.059873264062
0.0595672187818
0.0593303639987
0.0591715490236
0.0590423150202
7.23199832445e-54
7.23199832445e-54
7.23199832446e-54
7.23199832446e-54
7.23199832447e-54
7.23199832447e-54
7.23199832447e-54
7.23199832448e-54
7.23199832448e-54
7.23199832448e-54
7.23199832449e-54
7.23199832449e-54
7.2319983245e-54
7.2319983245e-54
7.2319983245e-54
7.23199832451e-54
7.23199832451e-54
7.23199832451e-54
7.23199832452e-54
7.23199832452e-54
7.23199832452e-54
7.23199832453e-54
7.23199832453e-54
7.23199832453e-54
7.23199832454e-54
7.23199832454e-54
7.23199832455e-54
7.23199832455e-54
7.23199832455e-54
7.23199832456e-54
7.23199832456e-54
7.23199832456e-54
7.23199832457e-54
7.23199832457e-54
7.23199832457e-54
7.23199832458e-54
7.23199832482e-54
7.2319983449e-54
7.23200003552e-54
7.23212902345e-54
7.24266765475e-54
7.46986729632e-54
0.000173953401746
0.231609147301
0.205332413527
0.142888530974
0.0991604482546
0.0797696853189
0.0723078376922
0.070179143888
0.069429070044
0.0688645237779
0.0682841556662
0.0676937240571
0.0670850850816
0.0664539883468
0.0657976117991
0.0651619321394
0.064509678256
0.0638793427197
0.0632727717752
0.0626928565013
0.0621511074384
0.0616854018971
0.0612528596571
0.0608814534255
0.0605740660332
0.0603374261114
0.0601769874226
0.06004531455
7.23199832434e-54
7.23199832435e-54
7.23199832435e-54
7.23199832435e-54
7.23199832436e-54
7.23199832436e-54
7.23199832436e-54
7.23199832437e-54
7.23199832437e-54
7.23199832437e-54
7.23199832437e-54
7.23199832438e-54
7.23199832438e-54
7.23199832438e-54
7.23199832439e-54
7.23199832439e-54
7.23199832439e-54
7.2319983244e-54
7.2319983244e-54
7.2319983244e-54
7.2319983244e-54
7.23199832441e-54
7.23199832441e-54
7.23199832441e-54
7.23199832442e-54
7.23199832442e-54
7.23199832442e-54
7.23199832443e-54
7.23199832443e-54
7.23199832443e-54
7.23199832443e-54
7.23199832444e-54
7.23199832444e-54
7.23199832444e-54
7.23199832445e-54
7.23199832445e-54
7.23199832468e-54
7.2319983435e-54
7.23199993101e-54
7.23212142991e-54
7.24210841722e-54
7.46101955205e-54
6.5468422179e-05
0.231583203948
0.206547519472
0.144078121085
0.101512319932
0.0808667392042
0.0738861904794
0.0716560563755
0.0708758811103
0.0703012586609
0.0696937331808
0.0690755764261
0.0684458745925
0.0677977284144
0.067131107366
0.0664848792689
0.0658199777535
0.0651764475542
0.0645531632213
0.0639607543896
0.0634077226606
0.0629335717472
0.0624948920605
0.0621213375803
0.0618136923317
0.0615742748852
0.0614095475864
0.0612721615431
7.23199832426e-54
7.23199832427e-54
7.23199832427e-54
7.23199832427e-54
7.23199832427e-54
7.23199832428e-54
7.23199832428e-54
7.23199832428e-54
7.23199832429e-54
7.23199832429e-54
7.23199832429e-54
7.23199832429e-54
7.2319983243e-54
7.2319983243e-54
7.2319983243e-54
7.2319983243e-54
7.23199832431e-54
7.23199832431e-54
7.23199832431e-54
7.23199832431e-54
7.23199832432e-54
7.23199832432e-54
7.23199832432e-54
7.23199832433e-54
7.23199832433e-54
7.23199832433e-54
7.23199832433e-54
7.23199832434e-54
7.23199832434e-54
7.23199832434e-54
7.23199832434e-54
7.23199832435e-54
7.23199832435e-54
7.23199832435e-54
7.23199832436e-54
7.23199832436e-54
7.23199832456e-54
7.23199834164e-54
7.23199978773e-54
7.23211089465e-54
7.24120272437e-54
7.44578559661e-54
2.06540165262e-05
0.231533495104
0.208390128198
0.146688249365
0.103359065818
0.0832082547986
0.0755724225201
0.0733804572453
0.0725896569432
0.0719863671372
0.0713529022966
0.0707125166655
0.0700600375187
0.0693897149535
0.0687039790784
0.0680402150396
0.0673606648485
0.0667008359296
0.0660621332171
0.0654557642911
0.0649163851792
0.0644051496054
0.0639585776245
0.0635802954912
0.0632690516034
0.0630263332337
0.0628571236661
0.0627150126307
7.2319983242e-54
7.23199832421e-54
7.23199832421e-54
7.23199832421e-54
7.23199832421e-54
7.23199832422e-54
7.23199832422e-54
7.23199832422e-54
7.23199832422e-54
7.23199832423e-54
7.23199832423e-54
7.23199832423e-54
7.23199832423e-54
7.23199832423e-54
7.23199832424e-54
7.23199832424e-54
7.23199832424e-54
7.23199832424e-54
7.23199832425e-54
7.23199832425e-54
7.23199832425e-54
7.23199832425e-54
7.23199832426e-54
7.23199832426e-54
7.23199832426e-54
7.23199832426e-54
7.23199832427e-54
7.23199832427e-54
7.23199832427e-54
7.23199832427e-54
7.23199832428e-54
7.23199832428e-54
7.23199832428e-54
7.23199832428e-54
7.23199832428e-54
7.23199832429e-54
7.23199832447e-54
7.23199833948e-54
7.23199961097e-54
7.23209698811e-54
7.24002510965e-54
7.42733114722e-54
7.73035267181e-06
0.231468735492
0.210520206743
0.149255804462
0.106349967117
0.0852821476412
0.0776772641151
0.0754178766242
0.0745772823104
0.073916537089
0.0732748658326
0.0726030408436
0.0719198849895
0.0712260588512
0.0705190691894
0.0698330414996
0.0691287866865
0.0684466028055
0.0677898837762
0.0671675271127
0.0666143596947
0.0660919401385
0.0656333845495
0.0652442693685
0.0649264076855
0.0646793043102
0.0645085242631
0.0643694737912
7.23199832416e-54
7.23199832416e-54
7.23199832416e-54
7.23199832416e-54
7.23199832416e-54
7.23199832417e-54
7.23199832417e-54
7.23199832417e-54
7.23199832417e-54
7.23199832418e-54
7.23199832418e-54
7.23199832418e-54
7.23199832418e-54
7.23199832418e-54
7.23199832419e-54
7.23199832419e-54
7.23199832419e-54
7.23199832419e-54
7.2319983242e-54
7.2319983242e-54
7.2319983242e-54
7.2319983242e-54
7.2319983242e-54
7.23199832421e-54
7.23199832421e-54
7.23199832421e-54
7.23199832421e-54
7.23199832421e-54
7.23199832422e-54
7.23199832422e-54
7.23199832422e-54
7.23199832422e-54
7.23199832423e-54
7.23199832423e-54
7.23199832423e-54
7.23199832423e-54
7.23199832439e-54
7.23199833726e-54
7.23199942721e-54
7.23208304654e-54
7.23886598406e-54
7.40808780669e-54
2.43408465001e-07
0.231385950646
0.213111806484
0.152296168759
0.108707572235
0.0881523977171
0.0801082987812
0.077646024033
0.0767534527165
0.0760839708289
0.0754236402939
0.0747245652026
0.0740129888789
0.0732859205708
0.0725512157556
0.0718357862163
0.0711111970157
0.0704071507364
0.0697324645147
0.0691179218189
0.0685211672509
0.067982886994
0.0675110098804
0.0671100321189
0.0667845396506
0.0665353590822
0.0663648227605
0.0662295353212
7.23199832412e-54
7.23199832412e-54
7.23199832412e-54
7.23199832412e-54
7.23199832413e-54
7.23199832413e-54
7.23199832413e-54
7.23199832413e-54
7.23199832413e-54
7.23199832414e-54
7.23199832414e-54
7.23199832414e-54
7.23199832414e-54
7.23199832414e-54
7.23199832415e-54
7.23199832415e-54
7.23199832415e-54
7.23199832415e-54
7.23199832415e-54
7.23199832416e-54
7.23199832416e-54
7.23199832416e-54
7.23199832416e-54
7.23199832416e-54
7.23199832417e-54
7.23199832417e-54
7.23199832417e-54
7.23199832417e-54
7.23199832417e-54
7.23199832418e-54
7.23199832418e-54
7.23199832418e-54
7.23199832418e-54
7.23199832418e-54
7.23199832419e-54
7.23199832419e-54
7.23199832432e-54
7.23199833548e-54
7.23199927938e-54
7.23207148417e-54
7.23787949381e-54
7.38935984457e-54
1.09857215196e-07
0.231283748681
0.215713965218
0.155817434676
0.112029001116
0.0911020207054
0.0827304425164
0.0801354145122
0.0791800525614
0.0784664117757
0.0777731145949
0.077043235543
0.076296812198
0.0755454793564
0.07480928959
0.0740462027303
0.0732975447978
0.0725697608707
0.0718716669691
0.0712398903619
0.070629077725
0.0700793779922
0.0695965260459
0.0691845419095
0.0688470357381
0.0685874063815
0.0684370052898
0.0682726374937
7.23199832409e-54
7.23199832409e-54
7.23199832409e-54
7.23199832409e-54
7.23199832409e-54
7.2319983241e-54
7.2319983241e-54
7.2319983241e-54
7.2319983241e-54
7.2319983241e-54
7.2319983241e-54
7.23199832411e-54
7.23199832411e-54
7.23199832411e-54
7.23199832411e-54
7.23199832411e-54
7.23199832412e-54
7.23199832412e-54
7.23199832412e-54
7.23199832412e-54
7.23199832412e-54
7.23199832412e-54
7.23199832413e-54
7.23199832413e-54
7.23199832413e-54
7.23199832413e-54
7.23199832413e-54
7.23199832414e-54
7.23199832414e-54
7.23199832414e-54
7.23199832414e-54
7.23199832414e-54
7.23199832415e-54
7.23199832415e-54
7.23199832415e-54
7.23199832415e-54
7.23199832427e-54
7.23199833374e-54
7.23199913711e-54
7.23206096151e-54
7.23700185286e-54
7.37162162969e-54
1.0614272245e-10
0.231141582243
0.21824984721
0.159512905841
0.115645764336
0.0935922175464
0.0857135540353
0.0828928813684
0.0818566990871
0.0810805085992
0.0803395883642
0.0795717897563
0.0787976605267
0.0780151926045
0.0772522801411
0.0764651129323
0.0756884937181
0.0749334761185
0.0742352637491
0.0735569959705
0.072931418365
0.0723667699413
0.0718720706597
0.0714485019926
0.071126856859
0.0708591668612
0.0706769265652
0.0705384798435
7.23199832406e-54
7.23199832406e-54
7.23199832406e-54
7.23199832406e-54
7.23199832407e-54
7.23199832407e-54
7.23199832407e-54
7.23199832407e-54
7.23199832407e-54
7.23199832407e-54
7.23199832408e-54
7.23199832408e-54
7.23199832408e-54
7.23199832408e-54
7.23199832408e-54
7.23199832409e-54
7.23199832409e-54
7.23199832409e-54
7.23199832409e-54
7.23199832409e-54
7.23199832409e-54
7.2319983241e-54
7.2319983241e-54
7.2319983241e-54
7.2319983241e-54
7.2319983241e-54
7.2319983241e-54
7.23199832411e-54
7.23199832411e-54
7.23199832411e-54
7.23199832411e-54
7.23199832411e-54
7.23199832412e-54
7.23199832412e-54
7.23199832412e-54
7.23199832412e-54
7.23199832422e-54
7.23199833212e-54
7.2319990039e-54
7.23205143569e-54
7.23623677818e-54
7.35516142988e-54
6.64555250867e-11
0.23096288454
0.22096569188
0.163086830807
0.119505403197
0.0971923305501
0.0887328634318
0.0857705119504
0.0847251137718
0.0839255293288
0.0831544280767
0.0823427971233
0.0815252878675
0.0807025910451
0.0799039924685
0.0790841310291
0.0782787234193
0.0774978528374
0.0767749984599
0.0760715978044
0.0754250310644
0.0748426422306
0.0743578736362
0.0739222644581
0.0735657683169
0.0732936369485
0.0731080230517
0.0729691026982
7.23199832404e-54
7.23199832404e-54
7.23199832404e-54
7.23199832404e-54
7.23199832404e-54
7.23199832404e-54
7.23199832405e-54
7.23199832405e-54
7.23199832405e-54
7.23199832405e-54
7.23199832405e-54
7.23199832405e-54
7.23199832406e-54
7.23199832406e-54
7.23199832406e-54
7.23199832406e-54
7.23199832406e-54
7.23199832406e-54
7.23199832407e-54
7.23199832407e-54
7.23199832407e-54
7.23199832407e-54
7.23199832407e-54
7.23199832407e-54
7.23199832408e-54
7.23199832408e-54
7.23199832408e-54
7.23199832408e-54
7.23199832408e-54
7.23199832408e-54
7.23199832409e-54
7.23199832409e-54
7.23199832409e-54
7.23199832409e-54
7.23199832409e-54
7.2319983241e-54
7.23199832418e-54
7.23199833077e-54
7.23199888698e-54
7.23204256453e-54
7.23551926256e-54
7.34025892882e-54
3.39361690463e-11
0.230661234666
0.22391416316
0.166658474926
0.123354503056
0.100914037294
0.0920428810432
0.0889295875132
0.0877837743802
0.0869413379334
0.0861309351563
0.0852875286275
0.0844362250262
0.083600741808
0.082741324817
0.081887106733
0.0810536477813
0.0802710063445
0.0794994374188
0.0787748451554
0.0781062862971
0.07752433694
0.0769942900581
0.076546108195
0.0761842079735
0.0759093577543
0.0757238081748
0.0755889931255
7.23199832402e-54
7.23199832402e-54
7.23199832402e-54
7.23199832402e-54
7.23199832402e-54
7.23199832403e-54
7.23199832403e-54
7.23199832403e-54
7.23199832403e-54
7.23199832403e-54
7.23199832403e-54
7.23199832403e-54
7.23199832404e-54
7.23199832404e-54
7.23199832404e-54
7.23199832404e-54
7.23199832404e-54
7.23199832404e-54
7.23199832405e-54
7.23199832405e-54
7.23199832405e-54
7.23199832405e-54
7.23199832405e-54
7.23199832405e-54
7.23199832405e-54
7.23199832406e-54
7.23199832406e-54
7.23199832406e-54
7.23199832406e-54
7.23199832406e-54
7.23199832406e-54
7.23199832407e-54
7.23199832407e-54
7.23199832407e-54
7.23199832407e-54
7.23199832407e-54
7.23199832414e-54
7.23199832975e-54
7.23199879644e-54
7.23203573132e-54
7.23501893441e-54
7.32864917721e-54
7.4650302082e-12
0.230238812352
0.226237827776
0.170813146382
0.127127493584
0.104474204508
0.0954229287391
0.0923002999318
0.0910943761132
0.0901942686466
0.089332245638
0.0884372924089
0.0875403492235
0.0866593634329
0.0857620270821
0.0848749025685
0.0840352475381
0.0832007792661
0.0824067742693
0.0816598771941
0.0809919382428
0.0803657330121
0.0798188143976
0.0793570654769
0.0789855921111
0.0787054704425
0.0785399578896
0.0783781027996
7.231998324e-54
7.231998324e-54
7.231998324e-54
7.23199832401e-54
7.23199832401e-54
7.23199832401e-54
7.23199832401e-54
7.23199832401e-54
7.23199832401e-54
7.23199832401e-54
7.23199832402e-54
7.23199832402e-54
7.23199832402e-54
7.23199832402e-54
7.23199832402e-54
7.23199832402e-54
7.23199832402e-54
7.23199832403e-54
7.23199832403e-54
7.23199832403e-54
7.23199832403e-54
7.23199832403e-54
7.23199832403e-54
7.23199832403e-54
7.23199832404e-54
7.23199832404e-54
7.23199832404e-54
7.23199832404e-54
7.23199832404e-54
7.23199832404e-54
7.23199832405e-54
7.23199832405e-54
7.23199832405e-54
7.23199832405e-54
7.23199832405e-54
7.23199832406e-54
7.23199832412e-54
7.23199832887e-54
7.23199871895e-54
7.23202971842e-54
7.23453554745e-54
7.3197339927e-54
1.47566209815e-18
0.22940698623
0.228665610793
0.17456384463
0.131250949647
0.108354246376
0.0992785144039
0.095942100599
0.0945969711044
0.0936352435761
0.0927171047022
0.0917750448449
0.0908306814229
0.0899076045737
0.0889691357312
0.0880416270517
0.0871671178545
0.086306416922
0.0854863809737
0.0847401517446
0.0840259923485
0.0833825696609
0.0828168525655
0.0823416709271
0.0819829358953
0.0816942982032
0.081497926355
0.0813610223524
7.23199832399e-54
7.23199832399e-54
7.23199832399e-54
7.23199832399e-54
7.23199832399e-54
7.23199832399e-54
7.23199832399e-54
7.231998324e-54
7.231998324e-54
7.231998324e-54
7.231998324e-54
7.231998324e-54
7.231998324e-54
7.231998324e-54
7.23199832401e-54
7.23199832401e-54
7.23199832401e-54
7.23199832401e-54
7.23199832401e-54
7.23199832401e-54
7.23199832401e-54
7.23199832402e-54
7.23199832402e-54
7.23199832402e-54
7.23199832402e-54
7.23199832402e-54
7.23199832402e-54
7.23199832403e-54
7.23199832403e-54
7.23199832403e-54
7.23199832403e-54
7.23199832403e-54
7.23199832403e-54
7.23199832404e-54
7.23199832404e-54
7.23199832404e-54
7.23199832409e-54
7.23199832814e-54
7.23199865242e-54
7.23202436538e-54
7.2340992479e-54
7.31204140463e-54
1.20760611944e-18
0.227205301854
0.23061083074
0.178643773464
0.135314620274
0.112631999832
0.102945465154
0.0995714275016
0.0982588547969
0.0972715090249
0.0962811549702
0.0952875845536
0.094318970741
0.0933326612763
0.0923501554367
0.0914083394041
0.0904745817871
0.0895792614419
0.0887536255587
0.0879569462135
0.087222006571
0.0865584830891
0.086005136025
0.0855172437127
0.0851250368616
0.0848253191309
0.084619062871
0.0844779386323
7.23199832397e-54
7.23199832398e-54
7.23199832398e-54
7.23199832398e-54
7.23199832398e-54
7.23199832398e-54
7.23199832398e-54
7.23199832398e-54
7.23199832398e-54
7.23199832399e-54
7.23199832399e-54
7.23199832399e-54
7.23199832399e-54
7.23199832399e-54
7.23199832399e-54
7.23199832399e-54
7.231998324e-54
7.231998324e-54
7.231998324e-54
7.231998324e-54
7.231998324e-54
7.231998324e-54
7.231998324e-54
7.23199832401e-54
7.23199832401e-54
7.23199832401e-54
7.23199832401e-54
7.23199832401e-54
7.23199832401e-54
7.23199832401e-54
7.23199832402e-54
7.23199832402e-54
7.23199832402e-54
7.23199832402e-54
7.23199832402e-54
7.23199832402e-54
7.23199832407e-54
7.23199832758e-54
7.23199860127e-54
7.23201990436e-54
7.23374184139e-54
7.30564316484e-54
1.02791864644e-18
0.219265445387
0.231791201949
0.182230193469
0.139627380074
0.116603449626
0.107108532149
0.10341490933
0.102045132967
0.101023320856
0.0999869474774
0.0989490564592
0.097932609037
0.0969004383375
0.0959047993295
0.0949047498628
0.0939370244486
0.0930332546131
0.0921538553159
0.0913360263369
0.0906023887215
0.089919556711
0.0893238772834
0.0888227683583
0.0884167617853
0.08810761528
0.0879203782539
0.0877776245012
7.23199832396e-54
7.23199832396e-54
7.23199832397e-54
7.23199832397e-54
7.23199832397e-54
7.23199832397e-54
7.23199832397e-54
7.23199832397e-54
7.23199832397e-54
7.23199832397e-54
7.23199832398e-54
7.23199832398e-54
7.23199832398e-54
7.23199832398e-54
7.23199832398e-54
7.23199832398e-54
7.23199832398e-54
7.23199832398e-54
7.23199832399e-54
7.23199832399e-54
7.23199832399e-54
7.23199832399e-54
7.23199832399e-54
7.23199832399e-54
7.23199832399e-54
7.231998324e-54
7.231998324e-54
7.231998324e-54
7.231998324e-54
7.231998324e-54
7.231998324e-54
7.23199832401e-54
7.23199832401e-54
7.23199832401e-54
7.23199832401e-54
7.23199832401e-54
7.23199832405e-54
7.23199832716e-54
7.23199856631e-54
7.23201692126e-54
7.2334727417e-54
7.30036216814e-54
8.65505283684e-19
0.19930619535
0.232067963658
0.186163517812
0.143992694737
0.120775743582
0.11105027768
0.107487607004
0.106040688313
0.104929764376
0.103845298408
0.102782209404
0.1017026519
0.10062413204
0.0995851543027
0.0985481886976
0.0975661433041
0.0966074461604
0.0957018498834
0.0948797796809
0.0941009604603
0.0934030102606
0.0927911469025
0.092301464459
0.0918826151131
0.0915638626579
0.0913444597795
0.0912060914689
7.23199832395e-54
7.23199832395e-54
7.23199832396e-54
7.23199832396e-54
7.23199832396e-54
7.23199832396e-54
7.23199832396e-54
7.23199832396e-54
7.23199832396e-54
7.23199832396e-54
7.23199832397e-54
7.23199832397e-54
7.23199832397e-54
7.23199832397e-54
7.23199832397e-54
7.23199832397e-54
7.23199832397e-54
7.23199832397e-54
7.23199832398e-54
7.23199832398e-54
7.23199832398e-54
7.23199832398e-54
7.23199832398e-54
7.23199832398e-54
7.23199832398e-54
7.23199832399e-54
7.23199832399e-54
7.23199832399e-54
7.23199832399e-54
7.23199832399e-54
7.23199832399e-54
7.231998324e-54
7.231998324e-54
7.231998324e-54
7.231998324e-54
7.231998324e-54
7.23199832404e-54
7.23199832677e-54
7.23199853614e-54
7.23201430994e-54
7.23323352294e-54
7.29542940657e-54
7.12177783271e-19
0.173164336086
0.232117460367
0.18973926918
0.148241651813
0.125139063192
0.115313035244
0.111636744547
0.110118118846
0.108970514926
0.107836249021
0.106725313652
0.105600049237
0.104505142981
0.103402013567
0.102324584811
0.101307497372
0.100314542922
0.0994050980929
0.0985371072819
0.0977392698561
0.0970486041498
0.0964202181797
0.0958892988451
0.0954601383167
0.0951331400766
0.0949327566338
0.0947890866225
7.23199832394e-54
7.23199832394e-54
7.23199832395e-54
7.23199832395e-54
7.23199832395e-54
7.23199832395e-54
7.23199832395e-54
7.23199832395e-54
7.23199832395e-54
7.23199832395e-54
7.23199832396e-54
7.23199832396e-54
7.23199832396e-54
7.23199832396e-54
7.23199832396e-54
7.23199832396e-54
7.23199832396e-54
7.23199832397e-54
7.23199832397e-54
7.23199832397e-54
7.23199832397e-54
7.23199832397e-54
7.23199832397e-54
7.23199832397e-54
7.23199832397e-54
7.23199832398e-54
7.23199832398e-54
7.23199832398e-54
7.23199832398e-54
7.23199832398e-54
7.23199832398e-54
7.23199832399e-54
7.23199832399e-54
7.23199832399e-54
7.23199832399e-54
7.23199832399e-54
7.23199832402e-54
7.23199832645e-54
7.23199851193e-54
7.23201234069e-54
7.23301088024e-54
7.29120652177e-54
6.09696738751e-19
0.148773295537
0.232091246138
0.193011086757
0.152543892654
0.12935956541
0.119882754196
0.116097639128
0.114415715476
0.113172254184
0.111976089505
0.110805725271
0.109628793302
0.108485168048
0.107338594946
0.106243221187
0.105167261191
0.104167192641
0.103207098732
0.102314661892
0.101524143346
0.100790404492
0.100148780683
0.0996309715328
0.0991888747589
0.0988499518738
0.098617224414
0.0984715921136
7.23199832394e-54
7.23199832394e-54
7.23199832394e-54
7.23199832394e-54
7.23199832394e-54
7.23199832394e-54
7.23199832394e-54
7.23199832394e-54
7.23199832394e-54
7.23199832395e-54
7.23199832395e-54
7.23199832395e-54
7.23199832395e-54
7.23199832395e-54
7.23199832395e-54
7.23199832395e-54
7.23199832396e-54
7.23199832396e-54
7.23199832396e-54
7.23199832396e-54
7.23199832396e-54
7.23199832396e-54
7.23199832396e-54
7.23199832397e-54
7.23199832397e-54
7.23199832397e-54
7.23199832397e-54
7.23199832397e-54
7.23199832397e-54
7.23199832397e-54
7.23199832398e-54
7.23199832398e-54
7.23199832398e-54
7.23199832398e-54
7.23199832398e-54
7.23199832398e-54
7.23199832401e-54
7.23199832619e-54
7.23199849358e-54
7.23201106825e-54
7.23286641695e-54
7.28729799341e-54
4.44009602218e-19
0.127177128358
0.232048451153
0.196397350579
0.156599572787
0.134195750642
0.124207035829
0.1204057724
0.118717586807
0.117430643316
0.116199307984
0.114970532159
0.113772963409
0.112566755473
0.11140575301
0.110254532487
0.109167924159
0.108113137286
0.107150607923
0.106235870929
0.105397811639
0.104675124226
0.104018140784
0.103460359686
0.103007062813
0.10268600829
0.102441135678
0.102291712493
7.23199832393e-54
7.23199832393e-54
7.23199832393e-54
7.23199832393e-54
7.23199832393e-54
7.23199832393e-54
7.23199832393e-54
7.23199832394e-54
7.23199832394e-54
7.23199832394e-54
7.23199832394e-54
7.23199832394e-54
7.23199832394e-54
7.23199832394e-54
7.23199832394e-54
7.23199832395e-54
7.23199832395e-54
7.23199832395e-54
7.23199832395e-54
7.23199832395e-54
7.23199832395e-54
7.23199832395e-54
7.23199832396e-54
7.23199832396e-54
7.23199832396e-54
7.23199832396e-54
7.23199832396e-54
7.23199832396e-54
7.23199832397e-54
7.23199832397e-54
7.23199832397e-54
7.23199832397e-54
7.23199832397e-54
7.23199832397e-54
7.23199832398e-54
7.23199832398e-54
7.231998324e-54
7.23199832599e-54
7.23199847776e-54
7.232009918e-54
7.23277910032e-54
7.28365136357e-54
3.81573455423e-19
0.10699848415
0.232000208994
0.199676971282
0.160316420555
0.138491966289
0.128685204623
0.124937212165
0.123139974875
0.121803093993
0.120524949275
0.11924295718
0.117997918244
0.116772239183
0.115551157406
0.114384031727
0.113241131262
0.112183813761
0.111168105527
0.110229886562
0.109398070146
0.108633208017
0.107961270672
0.107418064137
0.106952495388
0.106593322136
0.106340729547
0.106188867012
7.23199832392e-54
7.23199832392e-54
7.23199832392e-54
7.23199832392e-54
7.23199832393e-54
7.23199832393e-54
7.23199832393e-54
7.23199832393e-54
7.23199832393e-54
7.23199832393e-54
7.23199832393e-54
7.23199832393e-54
7.23199832394e-54
7.23199832394e-54
7.23199832394e-54
7.23199832394e-54
7.23199832394e-54
7.23199832394e-54
7.23199832394e-54
7.23199832394e-54
7.23199832395e-54
7.23199832395e-54
7.23199832395e-54
7.23199832395e-54
7.23199832395e-54
7.23199832395e-54
7.23199832396e-54
7.23199832396e-54
7.23199832396e-54
7.23199832396e-54
7.23199832396e-54
7.23199832396e-54
7.23199832397e-54
7.23199832397e-54
7.23199832397e-54
7.23199832397e-54
7.231998324e-54
7.23199832582e-54
7.23199846425e-54
7.23200891326e-54
7.23271823328e-54
7.28060897704e-54
3.40646969554e-19
0.0908077545325
0.231957990772
0.202465095192
0.164772077848
0.142677869643
0.133358590482
0.129474158138
0.127652864821
0.126277538082
0.124927205149
0.123617463954
0.122304429035
0.121034576187
0.119798350115
0.118577903346
0.117424479057
0.116316251717
0.115298887505
0.114337730206
0.113466751106
0.112705684794
0.112022697753
0.111438508365
0.110986202648
0.110617801406
0.110356682057
0.110203149302
7.23199832391e-54
7.23199832392e-54
7.23199832392e-54
7.23199832392e-54
7.23199832392e-54
7.23199832392e-54
7.23199832392e-54
7.23199832392e-54
7.23199832392e-54
7.23199832393e-54
7.23199832393e-54
7.23199832393e-54
7.23199832393e-54
7.23199832393e-54
7.23199832393e-54
7.23199832393e-54
7.23199832393e-54
7.23199832394e-54
7.23199832394e-54
7.23199832394e-54
7.23199832394e-54
7.23199832394e-54
7.23199832394e-54
7.23199832395e-54
7.23199832395e-54
7.23199832395e-54
7.23199832395e-54
7.23199832395e-54
7.23199832395e-54
7.23199832396e-54
7.23199832396e-54
7.23199832396e-54
7.23199832396e-54