/*--------------------------------*- C++ -*----------------------------------*\
| =========                 |                                                 |
| \\      /  F ield         | foam-extend: Open Source CFD                    |
|  \\    /   O peration     | Version:     4.1                                |
|   \\  /    A nd           | Web:         http://www.foam-extend.org         |
|    \\/     M anipulation  |                                                 |
\*---------------------------------------------------------------------------*/
FoamFile
{
    version     2.0;
    format      ascii;
    class       volScalarField;
    location    "0.0001";
    object      O2;
}
// * * * * * * * * * * * * * * * * * * * * * * * * * * * * * * * * * * * * * //

dimensions      [0 0 0 0 0 0 0];

internalField   nonuniform List<scalar> 
8400
(
0.232918
0.232918
0.232918
0.232918
0.232918
0.232918
0.232918
0.232918
0.232918
0.232918
0.232918
0.232918
0.232918
0.232918
0.232918
0.232918
0.232918
0.232918
0.232918
0.232918
0.232918
0.232918
0.232918
0.232918
0.232918
0.232918
0.232918
0.232918
0.232918
0.232918
0.232918
0.232918
0.232918
0.232918
0.232918
0.232918
0.232918
0.232918
0.232918
0.232918
0.232918
0.232918
0.232918
0.203688779911
1.21949559809e-05
1.47604451736e-07
5.8629053596e-08
3.37527911684e-08
2.60075249269e-08
2.33467170497e-08
2.22789249797e-08
2.16016986876e-08
2.10372774322e-08
2.04623509747e-08
1.98935651618e-08
1.93284921893e-08
1.87857033916e-08
1.82338144233e-08
1.76923981748e-08
1.71703590935e-08
1.66894877786e-08
1.62231942171e-08
1.57910635441e-08
1.54013752213e-08
1.50583965774e-08
1.47836443335e-08
1.45462351466e-08
1.4366321348e-08
1.42452383587e-08
1.415322448e-08
0.232918
0.232918
0.232918
0.232918
0.232918
0.232918
0.232918
0.232918
0.232918
0.232918
0.232918
0.232918
0.232918
0.232918
0.232918
0.232918
0.232918
0.232918
0.232918
0.232918
0.232918
0.232918
0.232918
0.232918
0.232918
0.232918
0.232918
0.232918
0.232918
0.232918
0.232918
0.232918
0.232918
0.232918
0.232918
0.232918
0.232918
0.232918
0.232918
0.232918
0.232918
0.232918
0.232917276441
0.00077918726047
6.18626788538e-07
8.90041134035e-08
4.25368037358e-08
2.70770955491e-08
2.2863516853e-08
2.14304245998e-08
2.07890494356e-08
2.03172094188e-08
1.98531961658e-08
1.93816469863e-08
1.89032964463e-08
1.84167032365e-08
1.79227549703e-08
1.74481183978e-08
1.69634006913e-08
1.64950222404e-08
1.60478877908e-08
1.56296485491e-08
1.52447018876e-08
1.48967277521e-08
1.46086289969e-08
1.43492394205e-08
1.4137859832e-08
1.39776539814e-08
1.3869761379e-08
1.37960913979e-08
0.232918
0.232918
0.232918
0.232918
0.232918
0.232918
0.232918
0.232918
0.232918
0.232918
0.232918
0.232918
0.232918
0.232918
0.232918
0.232918
0.232918
0.232918
0.232918
0.232918
0.232918
0.232918
0.232918
0.232918
0.232918
0.232918
0.232918
0.232918
0.232918
0.232918
0.232918
0.232918
0.232918
0.232918
0.232918
0.232918
0.232918
0.232918
0.232918
0.232918
0.232918
0.232918
0.232863206753
4.3788456949e-05
2.44718577321e-07
7.15135128113e-08
3.63795312833e-08
2.52530703016e-08
2.20155329137e-08
2.09070376941e-08
2.04514406904e-08
2.00336617519e-08
1.95989705172e-08
1.91529110086e-08
1.87000817765e-08
1.82365091989e-08
1.77686795724e-08
1.72980009235e-08
1.68550272561e-08
1.64107839145e-08
1.59877218184e-08
1.55934268146e-08
1.52302858227e-08
1.49027655961e-08
1.46328827591e-08
1.43898359823e-08
1.41917561308e-08
1.40425097956e-08
1.39424517733e-08
1.38762864762e-08
0.232918
0.232918
0.232918
0.232918
0.232918
0.232918
0.232918
0.232918
0.232918
0.232918
0.232918
0.232918
0.232918
0.232918
0.232918
0.232918
0.232918
0.232918
0.232918
0.232918
0.232918
0.232918
0.232918
0.232918
0.232918
0.232918
0.232918
0.232918
0.232918
0.232918
0.232918
0.232918
0.232918
0.232918
0.232918
0.232918
0.232918
0.232918
0.232918
0.232918
0.232918
0.232918
0.232298148033
2.64717256039e-05
1.95589821253e-07
6.46333305302e-08
3.46416613006e-08
2.52193411088e-08
2.21344117397e-08
2.12011690026e-08
2.07316435509e-08
2.03044234086e-08
1.98643185075e-08
1.94129880692e-08
1.89556041225e-08
1.84888809747e-08
1.80162856995e-08
1.75465243494e-08
1.71044394893e-08
1.66625420426e-08
1.62420684486e-08
1.58483080705e-08
1.54871219216e-08
1.5163207097e-08
1.48964580417e-08
1.46567013472e-08
1.44617606475e-08
1.43148562442e-08
1.42165734881e-08
1.41529736748e-08
0.232918
0.232918
0.232918
0.232918
0.232918
0.232918
0.232918
0.232918
0.232918
0.232918
0.232918
0.232918
0.232918
0.232918
0.232918
0.232918
0.232918
0.232918
0.232918
0.232918
0.232918
0.232918
0.232918
0.232918
0.232918
0.232918
0.232918
0.232918
0.232918
0.232918
0.232918
0.232918
0.232918
0.232918
0.232918
0.232918
0.232918
0.232918
0.232918
0.232918
0.232918
0.232918
0.231556679102
2.27906034316e-05
1.84699776621e-07
6.41317840998e-08
3.48876156325e-08
2.53093069903e-08
2.2721487701e-08
2.1888040656e-08
2.13670593704e-08
2.09260347152e-08
2.04616405971e-08
1.99947131575e-08
1.95184096668e-08
1.90370289384e-08
1.85503124204e-08
1.80840153846e-08
1.7613212071e-08
1.71602144287e-08
1.6731008484e-08
1.63288293707e-08
1.59593214111e-08
1.56297621937e-08
1.53586558277e-08
1.51145186342e-08
1.49156398782e-08
1.4764415506e-08
1.4663484733e-08
1.45979320181e-08
0.232918
0.232918
0.232918
0.232918
0.232918
0.232918
0.232918
0.232918
0.232918
0.232918
0.232918
0.232918
0.232918
0.232918
0.232918
0.232918
0.232918
0.232918
0.232918
0.232918
0.232918
0.232918
0.232918
0.232918
0.232918
0.232918
0.232918
0.232918
0.232918
0.232918
0.232918
0.232918
0.232918
0.232918
0.232918
0.232918
0.232918
0.232918
0.232918
0.232918
0.232918
0.232918
0.231383631159
2.25690096477e-05
1.84389930473e-07
6.51011109179e-08
3.5171777037e-08
2.66216838676e-08
2.37242437692e-08
2.28010587502e-08
2.22779613343e-08
2.18113575571e-08
2.13281092357e-08
2.08388726916e-08
2.0341209652e-08
1.98365017472e-08
1.9324868064e-08
1.88375584807e-08
1.83440244475e-08
1.78717869358e-08
1.74241628361e-08
1.70047124129e-08
1.66204841289e-08
1.6293595952e-08
1.5994777756e-08
1.57413432737e-08
1.55346846156e-08
1.53790910697e-08
1.52741256218e-08
1.52058667296e-08
0.232918
0.232918
0.232918
0.232918
0.232918
0.232918
0.232918
0.232918
0.232918
0.232918
0.232918
0.232918
0.232918
0.232918
0.232918
0.232918
0.232918
0.232918
0.232918
0.232918
0.232918
0.232918
0.232918
0.232918
0.232918
0.232918
0.232918
0.232918
0.232918
0.232918
0.232918
0.232918
0.232918
0.232918
0.232918
0.232918
0.232918
0.232918
0.232918
0.232918
0.232918
0.232918
0.231859861236
2.38754685697e-05
1.91143010684e-07
6.6473278201e-08
3.72954808864e-08
2.75143532246e-08
2.50413581163e-08
2.40276205663e-08
2.3462032067e-08
2.29685603022e-08
2.24462598678e-08
2.19182750214e-08
2.13861749228e-08
2.08487428482e-08
2.03089876366e-08
1.97947008596e-08
1.9273842272e-08
1.87758521627e-08
1.83018201846e-08
1.78603342742e-08
1.74558691164e-08
1.71123786224e-08
1.67979943366e-08
1.65325241447e-08
1.63180332146e-08
1.6153987998e-08
1.60436184889e-08
1.59713257055e-08
0.232918
0.232918
0.232918
0.232918
0.232918
0.232918
0.232918
0.232918
0.232918
0.232918
0.232918
0.232918
0.232918
0.232918
0.232918
0.232918
0.232918
0.232918
0.232918
0.232918
0.232918
0.232918
0.232918
0.232918
0.232918
0.232918
0.232918
0.232918
0.232918
0.232918
0.232918
0.232918
0.232918
0.232918
0.232918
0.232918
0.232918
0.232918
0.232918
0.232918
0.232918
0.232918
0.232227373972
2.65094523695e-05
2.02004368281e-07
6.96688847642e-08
3.88437884634e-08
2.94794147967e-08
2.64833982276e-08
2.55104636842e-08
2.49154315386e-08
2.43727200799e-08
2.3804460722e-08
2.32355536488e-08
2.26637100199e-08
2.20876287744e-08
2.15112340847e-08
2.09616251305e-08
2.0407145425e-08
1.98758255015e-08
1.93713875615e-08
1.8902135247e-08
1.84909100158e-08
1.81068672899e-08
1.77739429616e-08
1.74940277516e-08
1.72665728404e-08
1.70941511669e-08
1.69761702712e-08
1.68988913459e-08
0.232918
0.232918
0.232918
0.232918
0.232918
0.232918
0.232918
0.232918
0.232918
0.232918
0.232918
0.232918
0.232918
0.232918
0.232918
0.232918
0.232918
0.232918
0.232918
0.232918
0.232918
0.232918
0.232918
0.232918
0.232918
0.232918
0.232918
0.232918
0.232918
0.232918
0.232918
0.232918
0.232918
0.232918
0.232918
0.232918
0.232918
0.232918
0.232918
0.232918
0.232918
0.232918
0.232562091751
3.02285629413e-05
2.1605920514e-07
7.27353659288e-08
4.15268370546e-08
3.12314461931e-08
2.8348970465e-08
2.73387447803e-08
2.6674191843e-08
2.60496602923e-08
2.54443406814e-08
2.48202405033e-08
2.41942854524e-08
2.35696208372e-08
2.2947381121e-08
2.23541218923e-08
2.17556256091e-08
2.11837503443e-08
2.06421249388e-08
2.01387101103e-08
1.96981745561e-08
1.92883928436e-08
1.89318553569e-08
1.86318292895e-08
1.83893488019e-08
1.82052806886e-08
1.80797477093e-08
1.79995578949e-08
0.232918
0.232918
0.232918
0.232918
0.232918
0.232918
0.232918
0.232918
0.232918
0.232918
0.232918
0.232918
0.232918
0.232918
0.232918
0.232918
0.232918
0.232918
0.232918
0.232918
0.232918
0.232918
0.232918
0.232918
0.232918
0.232918
0.232918
0.232918
0.232918
0.232918
0.232918
0.232918
0.232918
0.232918
0.232918
0.232918
0.232918
0.232918
0.232918
0.232918
0.232918
0.232918
0.232786375196
3.54432806986e-05
2.36660326301e-07
7.65701785952e-08
4.35705321895e-08
3.3795665202e-08
3.05951624927e-08
2.94255924468e-08
2.86891439174e-08
2.80233410603e-08
2.73661809937e-08
2.6680823485e-08
2.59934778466e-08
2.53060070024e-08
2.46263941089e-08
2.39760256012e-08
2.33286510808e-08
2.27098169197e-08
2.21266629551e-08
2.16042561378e-08
2.11084536946e-08
2.06673362502e-08
2.02838199942e-08
1.99598906642e-08
1.97002840855e-08
1.95025526152e-08
1.93694226586e-08
1.92862328019e-08
0.232918
0.232918
0.232918
0.232918
0.232918
0.232918
0.232918
0.232918
0.232918
0.232918
0.232918
0.232918
0.232918
0.232918
0.232918
0.232918
0.232918
0.232918
0.232918
0.232918
0.232918
0.232918
0.232918
0.232918
0.232918
0.232918
0.232918
0.232918
0.232918
0.232918
0.232918
0.232918
0.232918
0.232918
0.232918
0.232918
0.232918
0.232918
0.232918
0.232918
0.232918
0.232918
0.232853939405
4.26496285228e-05
2.61940860228e-07
8.13505123468e-08
4.67267016084e-08
3.65483464964e-08
3.31382155777e-08
3.18783224216e-08
3.10521677861e-08
3.02986136199e-08
2.95664079901e-08
2.88107214283e-08
2.80514493989e-08
2.7300998169e-08
2.65795581508e-08
2.58485116319e-08
2.5143495452e-08
2.44705727696e-08
2.38360812587e-08
2.32704922362e-08
2.2734421918e-08
2.2258440145e-08
2.18450549915e-08
2.14958610985e-08
2.12133656415e-08
2.09992312965e-08
2.08749783686e-08
2.0764823634e-08
0.232918
0.232918
0.232918
0.232918
0.232918
0.232918
0.232918
0.232918
0.232918
0.232918
0.232918
0.232918
0.232918
0.232918
0.232918
0.232918
0.232918
0.232918
0.232918
0.232918
0.232918
0.232918
0.232918
0.232918
0.232918
0.232918
0.232918
0.232918
0.232918
0.232918
0.232918
0.232918
0.232918
0.232918
0.232918
0.232918
0.232918
0.232918
0.232918
0.232918
0.232918
0.232918
0.232909161184
5.40787712882e-05
2.9321433286e-07
8.6682306305e-08
5.03324748402e-08
3.89105498229e-08
3.62000716488e-08
3.47468716809e-08
3.37973764549e-08
3.29287229885e-08
3.2101392536e-08
3.1258884769e-08
3.04230596327e-08
2.95936353801e-08
2.87987209018e-08
2.79990353711e-08
2.72259462574e-08
2.64885647928e-08
2.58180834971e-08
2.5178414639e-08
2.45969084992e-08
2.40789537217e-08
2.36302742562e-08
2.32511751247e-08
2.29667900755e-08
2.27334341667e-08
2.25758793919e-08
2.24802945832e-08
0.232918
0.232918
0.232918
0.232918
0.232918
0.232918
0.232918
0.232918
0.232918
0.232918
0.232918
0.232918
0.232918
0.232918
0.232918
0.232918
0.232918
0.232918
0.232918
0.232918
0.232918
0.232918
0.232918
0.232918
0.232918
0.232918
0.232918
0.232918
0.232918
0.232918
0.232918
0.232918
0.232918
0.232918
0.232918
0.232918
0.232918
0.232918
0.232918
0.232918
0.232918
0.232918
0.23291212397
7.1003902084e-05
3.38557248493e-07
9.20661653403e-08
5.43880893223e-08
4.26047490168e-08
3.94657113611e-08
3.79136628723e-08
3.69136229661e-08
3.59572227262e-08
3.50368025503e-08
3.40896474539e-08
3.31518064404e-08
3.22250130455e-08
3.13405968454e-08
3.04549020434e-08
2.96019063272e-08
2.87926938397e-08
2.80557011581e-08
2.73526735545e-08
2.67167821556e-08
2.61520144719e-08
2.56853019671e-08
2.52726888809e-08
2.49379636997e-08
2.46849797419e-08
2.45120692146e-08
2.44086178913e-08
0.232918
0.232918
0.232918
0.232918
0.232918
0.232918
0.232918
0.232918
0.232918
0.232918
0.232918
0.232918
0.232918
0.232918
0.232918
0.232918
0.232918
0.232918
0.232918
0.232918
0.232918
0.232918
0.232918
0.232918
0.232918
0.232918
0.232918
0.232918
0.232918
0.232918
0.232918
0.232918
0.232918
0.232918
0.232918
0.232918
0.232918
0.232918
0.232918
0.232918
0.232918
0.232918
0.232914524526
0.000106392765607
4.13094420636e-07
9.7823074364e-08
5.86339333445e-08
4.66561708115e-08
4.32695432438e-08
4.16021249566e-08
4.04338819726e-08
3.93605249919e-08
3.83254629694e-08
3.72714068095e-08
3.62271283705e-08
3.52213496624e-08
3.42112585919e-08
3.32293873305e-08
3.22900254302e-08
3.14231918376e-08
3.05873990593e-08
2.98168893023e-08
2.91195834084e-08
2.85214048567e-08
2.79843001625e-08
2.75328867936e-08
2.71690425329e-08
2.68923729917e-08
2.67045616167e-08
2.65935556562e-08
0.232918
0.232918
0.232918
0.232918
0.232918
0.232918
0.232918
0.232918
0.232918
0.232918
0.232918
0.232918
0.232918
0.232918
0.232918
0.232918
0.232918
0.232918
0.232918
0.232918
0.232918
0.232918
0.232918
0.232918
0.232918
0.232918
0.232918
0.232918
0.232918
0.232918
0.232918
0.232918
0.232918
0.232918
0.232918
0.232918
0.232918
0.232918
0.232918
0.232918
0.232918
0.232918
0.23291645824
0.000171406460728
5.07809136238e-07
1.05397915016e-07
6.29983385502e-08
5.07142264371e-08
4.73843691061e-08
4.57953532724e-08
4.44983628649e-08
4.32663637088e-08
4.20812992614e-08
4.08811414459e-08
3.97043504618e-08
3.85739382972e-08
3.74490875123e-08
3.63591408829e-08
3.53450083483e-08
3.43584604089e-08
3.34382278622e-08
3.25926566902e-08
3.18510765696e-08
3.11694698574e-08
3.05793989466e-08
3.00831548699e-08
2.96834846267e-08
2.93818691894e-08
2.91983943674e-08
2.90527499548e-08
0.232918
0.232918
0.232918
0.232918
0.232918
0.232918
0.232918
0.232918
0.232918
0.232918
0.232918
0.232918
0.232918
0.232918
0.232918
0.232918
0.232918
0.232918
0.232918
0.232918
0.232918
0.232918
0.232918
0.232918
0.232918
0.232918
0.232918
0.232918
0.232918
0.232918
0.232918
0.232918
0.232918
0.232918
0.232918
0.232918
0.232918
0.232918
0.232918
0.232918
0.232918
0.232918
0.232917115322
0.000354922802254
6.96805929445e-07
1.1266799921e-07
6.81150949132e-08
5.54399153993e-08
5.24102025415e-08
5.0641138681e-08
4.90846768787e-08
4.76661740906e-08
4.63125402089e-08
4.49552628233e-08
4.36243374214e-08
4.23530630314e-08
4.10933421211e-08
3.98754545845e-08
3.87464788671e-08
3.76554853448e-08
3.66380042747e-08
3.57298652864e-08
3.48837177169e-08
3.41355546239e-08
3.34849695993e-08
3.29400956412e-08
3.25259283422e-08
3.21922841612e-08
3.19634240672e-08
3.18294437172e-08
0.232918
0.232918
0.232918
0.232918
0.232918
0.232918
0.232918
0.232918
0.232918
0.232918
0.232918
0.232918
0.232918
0.232918
0.232918
0.232918
0.232918
0.232918
0.232918
0.232918
0.232918
0.232918
0.232918
0.232918
0.232918
0.232918
0.232918
0.232918
0.232918
0.232918
0.232918
0.232918
0.232918
0.232918
0.232918
0.232918
0.232918
0.232918
0.232918
0.232918
0.232918
0.232918
0.232917279609
0.00116261693621
1.0854994798e-06
1.21606180945e-07
7.34625399993e-08
6.10380426021e-08
5.75050806367e-08
5.58052940319e-08
5.42178638849e-08
5.26387900037e-08
5.10647090132e-08
4.95252418327e-08
4.80547301332e-08
4.65952636004e-08
4.51769916702e-08
4.38459497769e-08
4.25550271385e-08
4.13396997593e-08
4.02409126084e-08
3.92065136504e-08
3.82739217928e-08
3.74477506986e-08
3.67619619899e-08
3.61612105815e-08
3.56773773753e-08
3.53076142628e-08
3.50508647462e-08
3.48996502519e-08
0.232918
0.232918
0.232918
0.232918
0.232918
0.232918
0.232918
0.232918
0.232918
0.232918
0.232918
0.232918
0.232918
0.232918
0.232918
0.232918
0.232918
0.232918
0.232918
0.232918
0.232918
0.232918
0.232918
0.232918
0.232918
0.232918
0.232918
0.232918
0.232918
0.232918
0.232918
0.232918
0.232918
0.232918
0.232918
0.232918
0.232918
0.232918
0.232918
0.232918
0.232918
0.232918
0.232917389372
0.00607839687091
2.02099571298e-06
1.30084756786e-07
7.96009088216e-08
6.65499177045e-08
6.37100718799e-08
6.16573074265e-08
5.98918236087e-08
5.81245560038e-08
5.6346359309e-08
5.46119287201e-08
5.29519132916e-08
5.13078929212e-08
4.9753053032e-08
4.82322028254e-08
4.67921521372e-08
4.54727677844e-08
4.42194152641e-08
4.30798884613e-08
4.20764081105e-08
4.11634421779e-08
4.03748689925e-08
3.97125148908e-08
3.91757584215e-08
3.87656912009e-08
3.85109139102e-08
3.83444270479e-08
0.232918
0.232918
0.232918
0.232918
0.232918
0.232918
0.232918
0.232918
0.232918
0.232918
0.232918
0.232918
0.232918
0.232918
0.232918
0.232918
0.232918
0.232918
0.232918
0.232918
0.232918
0.232918
0.232918
0.232918
0.232918
0.232918
0.232918
0.232918
0.232918
0.232918
0.232918
0.232918
0.232918
0.232918
0.232918
0.232918
0.232918
0.232918
0.232918
0.232918
0.232918
0.232918
0.232917487693
0.0225955280033
3.0839724613e-06
1.40736417358e-07
8.63039859083e-08
7.27459421077e-08
7.00055292823e-08
6.83237343771e-08
6.63230418524e-08
6.42529278437e-08
6.22374417612e-08
6.03058177762e-08
5.83990846165e-08
5.65463273114e-08
5.4800550195e-08
5.31029741108e-08
5.15260353213e-08
5.00244081283e-08
4.86373383693e-08
4.74004336178e-08
4.62591192767e-08
4.52528622427e-08
4.43807678774e-08
4.36815657419e-08
4.30870079646e-08
4.26320694915e-08
4.23146679427e-08
4.21331765498e-08
0.232918
0.232918
0.232918
0.232918
0.232918
0.232918
0.232918
0.232918
0.232918
0.232918
0.232918
0.232918
0.232918
0.232918
0.232918
0.232918
0.232918
0.232918
0.232918
0.232918
0.232918
0.232918
0.232918
0.232918
0.232918
0.232918
0.232918
0.232918
0.232918
0.232918
0.232918
0.232918
0.232918
0.232918
0.232918
0.232918
0.232918
0.232918
0.232918
0.232918
0.232918
0.232918
0.23291757981
0.0466139265469
4.43397854054e-06
1.51507852352e-07
9.33275232541e-08
7.97483345677e-08
7.73239682604e-08
7.5628149536e-08
7.33769341693e-08
7.10553188146e-08
6.87734167938e-08
6.6586076841e-08
6.44298712799e-08
6.2382381852e-08
6.0383042226e-08
5.84821496416e-08
5.67258390298e-08
5.50527310892e-08
5.3546277105e-08
5.21413863968e-08
5.0878549663e-08
4.9800237241e-08
4.88370677569e-08
4.8027450202e-08
4.73714323698e-08
4.68663627831e-08
4.65441446106e-08
4.63336053678e-08
0.232918
0.232918
0.232918
0.232918
0.232918
0.232918
0.232918
0.232918
0.232918
0.232918
0.232918
0.232918
0.232918
0.232918
0.232918
0.232918
0.232918
0.232918
0.232918
0.232918
0.232918
0.232918
0.232918
0.232918
0.232918
0.232918
0.232918
0.232918
0.232918
0.232918
0.232918
0.232918
0.232918
0.232918
0.232918
0.232918
0.232918
0.232918
0.232918
0.232918
0.232918
0.232918
0.232917641274
0.0700289314151
5.58499627435e-06
1.62564397346e-07
1.01068247876e-07
8.70023287242e-08
8.58259599758e-08
8.41331576099e-08
8.14033355203e-08
7.86612770225e-08
7.60390975821e-08
7.35374822356e-08
7.10926257974e-08
6.8780386709e-08
6.65352081033e-08
6.44453127646e-08
6.24489887708e-08
6.06247464221e-08
5.89122610283e-08
5.73524759459e-08
5.5996589354e-08
5.47640457348e-08
5.36989833675e-08
5.28401278873e-08
5.2112228589e-08
5.15480795485e-08
5.1151300428e-08
5.09116779836e-08
0.232918
0.232918
0.232918
0.232918
0.232918
0.232918
0.232918
0.232918
0.232918
0.232918
0.232918
0.232918
0.232918
0.232918
0.232918
0.232918
0.232918
0.232918
0.232918
0.232918
0.232918
0.232918
0.232918
0.232918
0.232918
0.232918
0.232918
0.232918
0.232918
0.232918
0.232918
0.232918
0.232918
0.232918
0.232918
0.232918
0.232918
0.232918
0.232918
0.232918
0.232918
0.232918
0.2329177394
0.0912840309673
6.73036018918e-06
1.75811749816e-07
1.08991391301e-07
9.6143617799e-08
9.45227648554e-08
9.29864011071e-08
9.00412719354e-08
8.69473331237e-08
8.40090429697e-08
8.11601729593e-08
7.84507836891e-08
7.58086983033e-08
7.33358130517e-08
7.09604084918e-08
6.87707512027e-08
6.66990208478e-08
6.48399752995e-08
6.31160125258e-08
6.1567753419e-08
6.02480160775e-08
5.90718400826e-08
5.80788978678e-08
5.72696536469e-08
5.66834125483e-08
5.62351927394e-08
5.59656731771e-08
0.232918
0.232918
0.232918
0.232918
0.232918
0.232918
0.232918
0.232918
0.232918
0.232918
0.232918
0.232918
0.232918
0.232918
0.232918
0.232918
0.232918
0.232918
0.232918
0.232918
0.232918
0.232918
0.232918
0.232918
0.232918
0.232918
0.232918
0.232918
0.232918
0.232918
0.232918
0.232918
0.232918
0.232918
0.232918
0.232918
0.232918
0.232918
0.232918
0.232918
0.232918
0.232918
0.232917776516
0.111485745941
7.93620520652e-06
1.90803983322e-07
1.16836163241e-07
1.04909997819e-07
1.04251347578e-07
1.0305894639e-07
9.96334034367e-08
9.61139879712e-08
9.27858743713e-08
8.95508966062e-08
8.64909993974e-08
8.3566825821e-08
8.07517924768e-08
7.81333744186e-08
7.56463122951e-08
7.3389145739e-08
7.12774057756e-08
6.93666346896e-08
6.76969000638e-08
6.61905203829e-08
6.48846030829e-08
6.38312589627e-08
6.29360140548e-08
6.22388522735e-08
6.17356946206e-08
6.14252781819e-08
0.232918
0.232918
0.232918
0.232918
0.232918
0.232918
0.232918
0.232918
0.232918
0.232918
0.232918
0.232918
0.232918
0.232918
0.232918
0.232918
0.232918
0.232918
0.232918
0.232918
0.232918
0.232918
0.232918
0.232918
0.232918
0.232918
0.232918
0.232918
0.232918
0.232918
0.232918
0.232918
0.232918
0.232918
0.232918
0.232918
0.232918
0.232918
0.232918
0.232918
0.232918
0.232918
0.232917800831
0.127943214996
9.01775386222e-06
2.05413094497e-07
1.27480436239e-07
1.14166323139e-07
1.15335745999e-07
1.1400898135e-07
1.10223544873e-07
1.06241000851e-07
1.02402681078e-07
9.87862633301e-08
9.52802577583e-08
9.198787171e-08
8.88828077895e-08
8.5917480305e-08
8.31869123713e-08
8.06339483969e-08
7.83368458086e-08
7.62181535897e-08
7.43319269382e-08
7.27045563012e-08
7.12665387099e-08
7.00487721032e-08
6.90988985682e-08
6.83250067223e-08
6.77574164478e-08
6.74035120669e-08
0.232918
0.232918
0.232918
0.232918
0.232918
0.232918
0.232918
0.232918
0.232918
0.232918
0.232918
0.232918
0.232918
0.232918
0.232918
0.232918
0.232918
0.232918
0.232918
0.232918
0.232918
0.232918
0.232918
0.232918
0.232918
0.232918
0.232918
0.232918
0.232918
0.232918
0.232918
0.232918
0.232918
0.232918
0.232918
0.232918
0.232918
0.232918
0.232918
0.232918
0.232918
0.232918
0.23291784579
0.140450263192
1.01347476617e-05
2.22210858665e-07
1.3703994189e-07
1.2573902599e-07
1.26713645145e-07
1.25952117674e-07
1.21849015993e-07
1.17332707702e-07
1.13001537432e-07
1.08832342155e-07
1.04926186333e-07
1.01175923793e-07
9.76880396838e-08
9.44182550517e-08
9.13494814596e-08
8.85634532941e-08
8.59604613691e-08
8.3664514956e-08
8.15679359933e-08
7.97355247277e-08
7.81897970448e-08
7.68457999719e-08
7.57399492133e-08
7.48721992054e-08
7.4282421498e-08
7.38716044289e-08
0.232918
0.232918
0.232918
0.232918
0.232918
0.232918
0.232918
0.232918
0.232918
0.232918
0.232918
0.232918
0.232918
0.232918
0.232918
0.232918
0.232918
0.232918
0.232918
0.232918
0.232918
0.232918
0.232918
0.232918
0.232918
0.232918
0.232918
0.232918
0.232918
0.232918
0.232918
0.232918
0.232918
0.232918
0.232918
0.232918
0.232918
0.232918
0.232918
0.232918
0.232918
0.232918
0.232917874706
0.152480975493
1.14786061131e-05
2.40982197132e-07
1.49736549063e-07
1.36695338801e-07
1.39517245037e-07
1.39114429829e-07
1.34412981191e-07
1.29272961151e-07
1.24390971722e-07
1.19769606523e-07
1.15332773975e-07
1.11185311745e-07
1.07293097687e-07
1.03607310851e-07
1.00231448333e-07
9.70842313808e-08
9.42687549874e-08
9.16758109358e-08
8.94129583683e-08
8.73766407441e-08
8.56244928091e-08
8.41826280947e-08
8.29616077077e-08
8.19948734041e-08
8.12797461853e-08
8.08537279768e-08
0.232918
0.232918
0.232918
0.232918
0.232918
0.232918
0.232918
0.232918
0.232918
0.232918
0.232918
0.232918
0.232918
0.232918
0.232918
0.232918
0.232918
0.232918
0.232918
0.232918
0.232918
0.232918
0.232918
0.232918
0.232918
0.232918
0.232918
0.232918
0.232918
0.232918
0.232918
0.232918
0.232918
0.232918
0.232918
0.232918
0.232918
0.232918
0.232918
0.232918
0.232918
0.232918
0.232917895372
0.160793929806
1.25187654631e-05
2.61681335048e-07
1.61098907654e-07
1.49324086374e-07
1.54501928615e-07
1.53622091767e-07
1.4829349917e-07
1.42370620034e-07
1.367927387e-07
1.31597526751e-07
1.2667402441e-07
1.21992725222e-07
1.17640994743e-07
1.13594943107e-07
1.09793957793e-07
1.06362118647e-07
1.03184148537e-07
1.00374967943e-07
9.78268970515e-08
9.56392536502e-08
9.36986475382e-08
9.21052108282e-08
9.07480309062e-08
8.96698109013e-08
8.88605807086e-08
8.8358778561e-08
0.232918
0.232918
0.232918
0.232918
0.232918
0.232918
0.232918
0.232918
0.232918
0.232918
0.232918
0.232918
0.232918
0.232918
0.232918
0.232918
0.232918
0.232918
0.232918
0.232918
0.232918
0.232918
0.232918
0.232918
0.232918
0.232918
0.232918
0.232918
0.232918
0.232918
0.232918
0.232918
0.232918
0.232918
0.232918
0.232918
0.232918
0.232918
0.232918
0.232918
0.232918
0.232918
0.232917911771
0.166954929404
1.34866243269e-05
2.81651627623e-07
1.73187243811e-07
1.64010719073e-07
1.70086354908e-07
1.69158773917e-07
1.63160764877e-07
1.56600470831e-07
1.50381504329e-07
1.44514280495e-07
1.38916782547e-07
1.33705375762e-07
1.28847259758e-07
1.24282537298e-07
1.20136841751e-07
1.16340296816e-07
1.12834663607e-07
1.09739693396e-07
1.0693390452e-07
1.04522790936e-07
1.02384606495e-07
1.00564589617e-07
9.91166602123e-08
9.79112102408e-08
9.69950965248e-08
9.63483539005e-08
0.232918
0.232918
0.232918
0.232918
0.232918
0.232918
0.232918
0.232918
0.232918
0.232918
0.232918
0.232918
0.232918
0.232918
0.232918
0.232918
0.232918
0.232918
0.232918
0.232918
0.232918
0.232918
0.232918
0.232918
0.232918
0.232918
0.232918
0.232918
0.232918
0.232918
0.232918
0.232918
0.232918
0.232918
0.232918
0.232918
0.232918
0.232918
0.232918
0.232918
0.232918
0.232918
0.232917928337
0.172366691746
1.43485799617e-05
3.08075482112e-07
1.87768144873e-07
1.79200727271e-07
1.86793859393e-07
1.86630459052e-07
1.79528147268e-07
1.72037773819e-07
1.64988399908e-07
1.5837212865e-07
1.52167940038e-07
1.46342262972e-07
1.40864935054e-07
1.35845331892e-07
1.31243482949e-07
1.2698188737e-07
1.23184847078e-07
1.19776199843e-07
1.16691670829e-07
1.13979632588e-07
1.11686695906e-07
1.09681313745e-07
1.08064127537e-07
1.06719162929e-07
1.05690976149e-07
1.04934385622e-07
0.232918
0.232918
0.232918
0.232918
0.232918
0.232918
0.232918
0.232918
0.232918
0.232918
0.232918
0.232918
0.232918
0.232918
0.232918
0.232918
0.232918
0.232918
0.232918
0.232918
0.232918
0.232918
0.232918
0.232918
0.232918
0.232918
0.232918
0.232918
0.232918
0.232918
0.232918
0.232918
0.232918
0.232918
0.232918
0.232918
0.232918
0.232918
0.232918
0.232918
0.232918
0.232918
0.232917920708
0.173768020984
1.5060003864e-05
3.33813711732e-07
2.0316961181e-07
1.96014573024e-07
2.05839993036e-07
2.05017884557e-07
1.97242958831e-07
1.88754399603e-07
1.80789419114e-07
1.7334224884e-07
1.66388538869e-07
1.59832003293e-07
1.53811958377e-07
1.48266966165e-07
1.43157282645e-07
1.38475994665e-07
1.342944288e-07
1.30465308734e-07
1.27134574534e-07
1.24164235417e-07
1.21637160445e-07
1.19425035632e-07
1.17646141705e-07
1.16138941549e-07
1.14976536347e-07
1.14101155761e-07
0.232918
0.232918
0.232918
0.232918
0.232918
0.232918
0.232918
0.232918
0.232918
0.232918
0.232918
0.232918
0.232918
0.232918
0.232918
0.232918
0.232918
0.232918
0.232918
0.232918
0.232918
0.232918
0.232918
0.232918
0.232918
0.232918
0.232918
0.232918
0.232918
0.232918
0.232918
0.232918
0.232918
0.232918
0.232918
0.232918
0.232918
0.232918
0.232918
0.232918
0.232918
0.232918
0.232917925158
0.17327267715
1.5481700405e-05
3.63732283564e-07
2.2129500649e-07
2.15507060721e-07
2.26526379519e-07
2.2581113837e-07
2.16557236657e-07
2.06789389623e-07
1.97757164882e-07
1.89361394803e-07
1.81564057026e-07
1.74350506496e-07
1.67662431926e-07
1.61516700497e-07
1.5584786675e-07
1.507341407e-07
1.46151920423e-07
1.41985147452e-07
1.38335048223e-07
1.35051487992e-07
1.32267052215e-07
1.29821728375e-07
1.2783501338e-07
1.26150775994e-07
1.2481679006e-07
1.23857412469e-07
0.232918
0.232918
0.232918
0.232918
0.232918
0.232918
0.232918
0.232918
0.232918
0.232918
0.232918
0.232918
0.232918
0.232918
0.232918
0.232918
0.232918
0.232918
0.232918
0.232918
0.232918
0.232918
0.232918
0.232918
0.232918
0.232918
0.232918
0.232918
0.232918
0.232918
0.232918
0.232918
0.232918
0.232918
0.232918
0.232918
0.232918
0.232918
0.232918
0.232918
0.232918
0.232918
0.23291791134
0.169461251453
1.57569557846e-05
3.9668078189e-07
2.39904024428e-07
2.37370179002e-07
2.49164630898e-07
2.47115281529e-07
2.36959801621e-07
2.2614969602e-07
2.16095322619e-07
2.06711217234e-07
1.97973301983e-07
1.89922305681e-07
1.82500199071e-07
1.75692952004e-07
1.69447367896e-07
1.63859193063e-07
1.58798279125e-07
1.54196762223e-07
1.50201349263e-07
1.46607135664e-07
1.4354369719e-07
1.40852136451e-07
1.38639624701e-07
1.36782930685e-07
1.35267079777e-07
1.34144275518e-07
0.232918
0.232918
0.232918
0.232918
0.232918
0.232918
0.232918
0.232918
0.232918
0.232918
0.232918
0.232918
0.232918
0.232918
0.232918
0.232918
0.232918
0.232918
0.232918
0.232918
0.232918
0.232918
0.232918
0.232918
0.232918
0.232918
0.232918
0.232918
0.232918
0.232918
0.232918
0.232918
0.232918
0.232918
0.232918
0.232918
0.232918
0.232918
0.232918
0.232918
0.232918
0.232918
0.232917877279
0.162600672021
1.57300905965e-05
4.22678329927e-07
2.58882791575e-07
2.61635312619e-07
2.73266548295e-07
2.7164472491e-07
2.59487216084e-07
2.47147471499e-07
2.35802449488e-07
2.25306689942e-07
2.1558692765e-07
2.06605732881e-07
1.98391226627e-07
1.90912086637e-07
1.84014746865e-07
1.77848703225e-07
1.72305536405e-07
1.67299309882e-07
1.62874878669e-07
1.58924190669e-07
1.55549695263e-07
1.52564903234e-07
1.50129011554e-07
1.48009042055e-07
1.46390256025e-07
1.44972203162e-07
0.232918
0.232918
0.232918
0.232918
0.232918
0.232918
0.232918
0.232918
0.232918
0.232918
0.232918
0.232918
0.232918
0.232918
0.232918
0.232918
0.232918
0.232918
0.232918
0.232918
0.232918
0.232918
0.232918
0.232918
0.232918
0.232918
0.232918
0.232918
0.232918
0.232918
0.232918
0.232918
0.232918