/*--------------------------------*- C++ -*----------------------------------*\
| =========                 |                                                 |
| \\      /  F ield         | foam-extend: Open Source CFD                    |
|  \\    /   O peration     | Version:     4.1                                |
|   \\  /    A nd           | Web:         http://www.foam-extend.org         |
|    \\/     M anipulation  |                                                 |
\*---------------------------------------------------------------------------*/
FoamFile
{
    version     2.0;
    format      ascii;
    class       volScalarField;
    location    "0.0001";
    object      O2Plus;
}
// * * * * * * * * * * * * * * * * * * * * * * * * * * * * * * * * * * * * * //

dimensions      [0 0 0 0 0 0 0];

internalField   nonuniform List<scalar> 
8400
(
2.93247974578e-108
2.9324797458e-108
2.93247974582e-108
2.93247974584e-108
2.93247974586e-108
2.93247974587e-108
2.93247974589e-108
2.93247974591e-108
2.93247974593e-108
2.93247974595e-108
2.93247974596e-108
2.93247974598e-108
2.932479746e-108
2.93247974602e-108
2.93247974603e-108
2.93247974605e-108
2.93247974607e-108
2.93247974608e-108
2.9324797461e-108
2.93247974611e-108
2.93247974613e-108
2.93247974615e-108
2.93247974616e-108
2.93247974618e-108
2.93247974619e-108
2.93247974621e-108
2.93247974622e-108
2.93247974624e-108
2.93247974625e-108
2.93247974627e-108
2.93247974628e-108
2.9324797463e-108
2.93247974631e-108
2.93247974633e-108
2.93247974634e-108
2.93247974636e-108
2.93247974638e-108
2.93247974671e-108
2.93247977237e-108
2.93248182983e-108
2.93262984873e-108
2.94380961664e-108
3.12777738392e-108
7.84007450605e-14
7.30622333237e-08
1.94554300617e-07
2.05383421382e-07
1.93565871415e-07
1.87584879899e-07
1.84810227848e-07
1.82226319869e-07
1.79519795632e-07
1.76991720247e-07
1.74356071943e-07
1.71706728434e-07
1.69037342635e-07
1.66436244498e-07
1.6376321862e-07
1.61106477998e-07
1.58508011267e-07
1.56072096796e-07
1.53679544588e-07
1.51432238441e-07
1.4938074846e-07
1.47555061217e-07
1.46077511525e-07
1.44790218585e-07
1.43809979862e-07
1.43147077015e-07
1.42755429542e-07
2.93247974378e-108
2.93247974379e-108
2.93247974379e-108
2.9324797438e-108
2.93247974381e-108
2.93247974382e-108
2.93247974382e-108
2.93247974383e-108
2.93247974384e-108
2.93247974384e-108
2.93247974385e-108
2.93247974386e-108
2.93247974386e-108
2.93247974387e-108
2.93247974388e-108
2.93247974388e-108
2.93247974389e-108
2.9324797439e-108
2.9324797439e-108
2.93247974391e-108
2.93247974391e-108
2.93247974392e-108
2.93247974393e-108
2.93247974393e-108
2.93247974394e-108
2.93247974395e-108
2.93247974395e-108
2.93247974396e-108
2.93247974397e-108
2.93247974397e-108
2.93247974398e-108
2.93247974398e-108
2.93247974399e-108
2.932479744e-108
2.932479744e-108
2.93247974401e-108
2.93247974404e-108
2.93247974588e-108
2.93247989556e-108
2.93249179886e-108
2.93345853437e-108
2.96771194517e-108
2.73490770174e-42
3.03079751931e-09
1.56563471006e-07
2.03642485361e-07
1.97620916137e-07
1.83571428117e-07
1.80323683932e-07
1.78462973778e-07
1.76421895966e-07
1.74377531501e-07
1.72261362769e-07
1.70073010684e-07
1.67819009124e-07
1.65494434e-07
1.63106013111e-07
1.60777738259e-07
1.58365442928e-07
1.55993079737e-07
1.5368855004e-07
1.51499462034e-07
1.49458266412e-07
1.47592614853e-07
1.46028358747e-07
1.44612459699e-07
1.43455244484e-07
1.42573351612e-07
1.41980294065e-07
1.41639504307e-07
2.93247974326e-108
2.93247974327e-108
2.93247974327e-108
2.93247974327e-108
2.93247974328e-108
2.93247974328e-108
2.93247974329e-108
2.93247974329e-108
2.93247974329e-108
2.9324797433e-108
2.9324797433e-108
2.93247974331e-108
2.93247974331e-108
2.93247974331e-108
2.93247974332e-108
2.93247974332e-108
2.93247974332e-108
2.93247974333e-108
2.93247974333e-108
2.93247974334e-108
2.93247974334e-108
2.93247974334e-108
2.93247974335e-108
2.93247974335e-108
2.93247974335e-108
2.93247974336e-108
2.93247974336e-108
2.93247974337e-108
2.93247974337e-108
2.93247974337e-108
2.93247974338e-108
2.93247974338e-108
2.93247974338e-108
2.93247974339e-108
2.93247974339e-108
2.9324797434e-108
2.93247974346e-108
2.93247974867e-108
2.93248018731e-108
2.93251366064e-108
2.9352361639e-108
3.00493461258e-108
1.28435625787e-22
2.57862692556e-08
1.78638362721e-07
2.04239617476e-07
1.92179083706e-07
1.81365138075e-07
1.78521317158e-07
1.76610655197e-07
1.75006380794e-07
1.73138450121e-07
1.71133261628e-07
1.69044108026e-07
1.6689152406e-07
1.64662365201e-07
1.62389691132e-07
1.6007708803e-07
1.57861175955e-07
1.55599818323e-07
1.53408904406e-07
1.51337275212e-07
1.49406605754e-07
1.47648475098e-07
1.46182612287e-07
1.44856355699e-07
1.43773979602e-07
1.42951640694e-07
1.42399965949e-07
1.42089382917e-07
2.93247974304e-108
2.93247974305e-108
2.93247974305e-108
2.93247974305e-108
2.93247974305e-108
2.93247974306e-108
2.93247974306e-108
2.93247974306e-108
2.93247974307e-108
2.93247974307e-108
2.93247974307e-108
2.93247974307e-108
2.93247974308e-108
2.93247974308e-108
2.93247974308e-108
2.93247974308e-108
2.93247974309e-108
2.93247974309e-108
2.93247974309e-108
2.9324797431e-108
2.9324797431e-108
2.9324797431e-108
2.9324797431e-108
2.93247974311e-108
2.93247974311e-108
2.93247974311e-108
2.93247974311e-108
2.93247974312e-108
2.93247974312e-108
2.93247974312e-108
2.93247974312e-108
2.93247974313e-108
2.93247974313e-108
2.93247974313e-108
2.93247974313e-108
2.93247974314e-108
2.93247974324e-108
2.93247975134e-108
2.93248043214e-108
2.93253241128e-108
2.93677614106e-108
3.03255595903e-108
6.97570149495e-22
3.90486177915e-08
1.84998596407e-07
2.03190697371e-07
1.91137529159e-07
1.82862610215e-07
1.79616581576e-07
1.78000289504e-07
1.7624928692e-07
1.74339698076e-07
1.72315490023e-07
1.70207262419e-07
1.68045940846e-07
1.65821452248e-07
1.6354532703e-07
1.6125043755e-07
1.59049831605e-07
1.56812999492e-07
1.54652504534e-07
1.5260509084e-07
1.50705420026e-07
1.48982796769e-07
1.4754878473e-07
1.46248182696e-07
1.45188888462e-07
1.44386732915e-07
1.43848990086e-07
1.43549017864e-07
2.93247974292e-108
2.93247974293e-108
2.93247974293e-108
2.93247974293e-108
2.93247974293e-108
2.93247974294e-108
2.93247974294e-108
2.93247974294e-108
2.93247974294e-108
2.93247974294e-108
2.93247974295e-108
2.93247974295e-108
2.93247974295e-108
2.93247974295e-108
2.93247974295e-108
2.93247974296e-108
2.93247974296e-108
2.93247974296e-108
2.93247974296e-108
2.93247974296e-108
2.93247974297e-108
2.93247974297e-108
2.93247974297e-108
2.93247974297e-108
2.93247974297e-108
2.93247974298e-108
2.93247974298e-108
2.93247974298e-108
2.93247974298e-108
2.93247974298e-108
2.93247974299e-108
2.93247974299e-108
2.93247974299e-108
2.93247974299e-108
2.932479743e-108
2.932479743e-108
2.93247974311e-108
2.93247975254e-108
2.93248054669e-108
2.93254125709e-108
2.93751225609e-108
3.04463710778e-108
5.35345258423e-19
4.42892027924e-08
1.8713586121e-07
2.04643387277e-07
1.92920924952e-07
1.8379758947e-07
1.82251672546e-07
1.80978729622e-07
1.78998955748e-07
1.77056162413e-07
1.74957573525e-07
1.7280950856e-07
1.70591194286e-07
1.68330332648e-07
1.66024740174e-07
1.63783473097e-07
1.6147916217e-07
1.5921950875e-07
1.57047476288e-07
1.54988753513e-07
1.53075674639e-07
1.51348059851e-07
1.4990799893e-07
1.48608623674e-07
1.47548000869e-07
1.46739969672e-07
1.46196966039e-07
1.45895164527e-07
2.93247974285e-108
2.93247974285e-108
2.93247974285e-108
2.93247974285e-108
2.93247974286e-108
2.93247974286e-108
2.93247974286e-108
2.93247974286e-108
2.93247974286e-108
2.93247974287e-108
2.93247974287e-108
2.93247974287e-108
2.93247974287e-108
2.93247974287e-108
2.93247974287e-108
2.93247974288e-108
2.93247974288e-108
2.93247974288e-108
2.93247974288e-108
2.93247974288e-108
2.93247974288e-108
2.93247974289e-108
2.93247974289e-108
2.93247974289e-108
2.93247974289e-108
2.93247974289e-108
2.93247974289e-108
2.9324797429e-108
2.9324797429e-108
2.9324797429e-108
2.9324797429e-108
2.9324797429e-108
2.9324797429e-108
2.93247974291e-108
2.93247974291e-108
2.93247974291e-108
2.93247974303e-108
2.93247975259e-108
2.93248055783e-108
2.93254199492e-108
2.93756155589e-108
3.04577697993e-108
7.32797212057e-19
4.47006079328e-08
1.87508610573e-07
2.05989637187e-07
1.93847641554e-07
1.88556647759e-07
1.86339711606e-07
1.84803575887e-07
1.828547799e-07
1.80847499432e-07
1.78716668216e-07
1.76520262127e-07
1.74253789491e-07
1.71931745806e-07
1.69557768653e-07
1.6726451619e-07
1.64900697965e-07
1.62594356309e-07
1.60376589655e-07
1.58276256879e-07
1.56332922529e-07
1.5465882004e-07
1.53109653032e-07
1.51785829052e-07
1.50706132607e-07
1.49888550829e-07
1.49337176018e-07
1.49032826267e-07
2.9324797428e-108
2.9324797428e-108
2.9324797428e-108
2.9324797428e-108
2.9324797428e-108
2.93247974281e-108
2.93247974281e-108
2.93247974281e-108
2.93247974281e-108
2.93247974281e-108
2.93247974281e-108
2.93247974281e-108
2.93247974282e-108
2.93247974282e-108
2.93247974282e-108
2.93247974282e-108
2.93247974282e-108
2.93247974282e-108
2.93247974282e-108
2.93247974283e-108
2.93247974283e-108
2.93247974283e-108
2.93247974283e-108
2.93247974283e-108
2.93247974283e-108
2.93247974283e-108
2.93247974284e-108
2.93247974284e-108
2.93247974284e-108
2.93247974284e-108
2.93247974284e-108
2.93247974284e-108
2.93247974284e-108
2.93247974285e-108
2.93247974285e-108
2.93247974285e-108
2.93247974296e-108
2.93247975192e-108
2.93248050805e-108
2.93253837811e-108
2.93729519048e-108
3.04156279019e-108
1.87500311665e-19
4.26880616046e-08
1.8707755708e-07
2.06869337371e-07
1.98702144846e-07
1.91503894864e-07
1.91446100855e-07
1.89783731057e-07
1.87740014593e-07
1.85673839507e-07
1.83437033667e-07
1.81135288101e-07
1.7877785044e-07
1.76368103415e-07
1.73923479258e-07
1.71560828907e-07
1.69131638929e-07
1.6676924305e-07
1.64489476762e-07
1.62340693526e-07
1.6035046465e-07
1.58634567543e-07
1.57046424794e-07
1.55693882778e-07
1.54594722375e-07
1.53756955208e-07
1.53192201542e-07
1.52880764444e-07
2.93247974276e-108
2.93247974276e-108
2.93247974276e-108
2.93247974276e-108
2.93247974277e-108
2.93247974277e-108
2.93247974277e-108
2.93247974277e-108
2.93247974277e-108
2.93247974277e-108
2.93247974277e-108
2.93247974277e-108
2.93247974278e-108
2.93247974278e-108
2.93247974278e-108
2.93247974278e-108
2.93247974278e-108
2.93247974278e-108
2.93247974278e-108
2.93247974278e-108
2.93247974279e-108
2.93247974279e-108
2.93247974279e-108
2.93247974279e-108
2.93247974279e-108
2.93247974279e-108
2.93247974279e-108
2.93247974279e-108
2.9324797428e-108
2.9324797428e-108
2.9324797428e-108
2.9324797428e-108
2.9324797428e-108
2.9324797428e-108
2.9324797428e-108
2.93247974281e-108
2.9324797429e-108
2.93247975104e-108
2.93248043981e-108
2.93253336015e-108
2.93686380804e-108
3.03430684148e-108
7.37115507165e-22
3.91745414658e-08
1.86061362137e-07
2.08958828268e-07
2.01712294275e-07
1.97751747413e-07
1.96806513972e-07
1.95601181872e-07
1.93532596664e-07
1.91329732565e-07
1.88975024686e-07
1.86577359587e-07
1.84126746138e-07
1.81625526599e-07
1.79095621097e-07
1.76648160481e-07
1.7414196603e-07
1.71699206352e-07
1.693458281e-07
1.67132886948e-07
1.65169290637e-07
1.63314886407e-07
1.61680637317e-07
1.60291722367e-07
1.591621545e-07
1.5830315739e-07
1.57721067222e-07
1.57402696017e-07
2.93247974273e-108
2.93247974273e-108
2.93247974273e-108
2.93247974273e-108
2.93247974274e-108
2.93247974274e-108
2.93247974274e-108
2.93247974274e-108
2.93247974274e-108
2.93247974274e-108
2.93247974274e-108
2.93247974274e-108
2.93247974275e-108
2.93247974275e-108
2.93247974275e-108
2.93247974275e-108
2.93247974275e-108
2.93247974275e-108
2.93247974275e-108
2.93247974275e-108
2.93247974275e-108
2.93247974276e-108
2.93247974276e-108
2.93247974276e-108
2.93247974276e-108
2.93247974276e-108
2.93247974276e-108
2.93247974276e-108
2.93247974276e-108
2.93247974276e-108
2.93247974277e-108
2.93247974277e-108
2.93247974277e-108
2.93247974277e-108
2.93247974277e-108
2.93247974277e-108
2.93247974286e-108
2.93247975001e-108
2.93248035562e-108
2.93252673645e-108
2.93630290893e-108
3.02551696817e-108
5.43373118706e-22
3.51519891277e-08
1.84601963292e-07
2.10380733839e-07
2.06860042035e-07
2.02927731412e-07
2.0344673505e-07
2.02491659813e-07
2.00279695654e-07
1.97835430681e-07
1.95413050236e-07
1.92879841573e-07
1.90299179385e-07
1.87688321548e-07
1.85052171821e-07
1.82499799247e-07
1.79887034664e-07
1.77348665438e-07
1.7491132257e-07
1.72618665236e-07
1.70585846443e-07
1.6867258629e-07
1.6698368511e-07
1.65547452987e-07
1.64383250971e-07
1.63495100043e-07
1.62892866403e-07
1.62570351178e-07
2.93247974271e-108
2.93247974271e-108
2.93247974271e-108
2.93247974271e-108
2.93247974271e-108
2.93247974271e-108
2.93247974271e-108
2.93247974272e-108
2.93247974272e-108
2.93247974272e-108
2.93247974272e-108
2.93247974272e-108
2.93247974272e-108
2.93247974272e-108
2.93247974272e-108
2.93247974272e-108
2.93247974273e-108
2.93247974273e-108
2.93247974273e-108
2.93247974273e-108
2.93247974273e-108
2.93247974273e-108
2.93247974273e-108
2.93247974273e-108
2.93247974273e-108
2.93247974273e-108
2.93247974274e-108
2.93247974274e-108
2.93247974274e-108
2.93247974274e-108
2.93247974274e-108
2.93247974274e-108
2.93247974274e-108
2.93247974274e-108
2.93247974274e-108
2.93247974275e-108
2.93247974282e-108
2.93247974895e-108
2.93248026809e-108
2.93252009607e-108
2.93575081621e-108
3.01635134519e-108
3.38844059692e-22
3.08471037035e-08
1.82760766584e-07
2.12039990451e-07
2.10202073896e-07
2.10200981411e-07
2.11063466903e-07
2.09994276898e-07
2.07669576158e-07
2.05173458745e-07
2.02649277384e-07
1.99977951565e-07
1.9725672013e-07
1.94495774074e-07
1.91729949695e-07
1.89042542827e-07
1.8632640528e-07
1.83682120423e-07
1.81154294366e-07
1.78858921938e-07
1.76659379919e-07
1.74677760282e-07
1.72933307287e-07
1.71445237167e-07
1.70238670768e-07
1.69320180596e-07
1.68696385864e-07
1.68365884791e-07
2.93247974269e-108
2.93247974269e-108
2.93247974269e-108
2.93247974269e-108
2.93247974269e-108
2.9324797427e-108
2.9324797427e-108
2.9324797427e-108
2.9324797427e-108
2.9324797427e-108
2.9324797427e-108
2.9324797427e-108
2.9324797427e-108
2.9324797427e-108
2.9324797427e-108
2.9324797427e-108
2.93247974271e-108
2.93247974271e-108
2.93247974271e-108
2.93247974271e-108
2.93247974271e-108
2.93247974271e-108
2.93247974271e-108
2.93247974271e-108
2.93247974271e-108
2.93247974271e-108
2.93247974271e-108
2.93247974272e-108
2.93247974272e-108
2.93247974272e-108
2.93247974272e-108
2.93247974272e-108
2.93247974272e-108
2.93247974272e-108
2.93247974272e-108
2.93247974272e-108
2.93247974279e-108
2.9324797481e-108
2.93248019768e-108
2.9325145889e-108
2.93528094989e-108
3.00743119748e-108
1.53718958986e-22
2.65279884962e-08
1.80415985699e-07
2.13957302219e-07
2.15408798296e-07
2.17517251218e-07
2.19229883884e-07
2.18391655745e-07
2.15929293635e-07
2.13231485399e-07
2.10536738038e-07
2.07718448483e-07
2.04846817633e-07
2.01963696688e-07
1.99145985216e-07
1.96254201232e-07
1.93421600092e-07
1.90668243852e-07
1.88035128632e-07
1.85651144617e-07
1.83366769571e-07
1.81311394097e-07
1.79504171456e-07
1.77963553517e-07
1.76707975457e-07
1.75753149854e-07
1.75193367059e-07
1.74762462034e-07
2.93247974268e-108
2.93247974268e-108
2.93247974268e-108
2.93247974268e-108
2.93247974268e-108
2.93247974268e-108
2.93247974268e-108
2.93247974268e-108
2.93247974268e-108
2.93247974268e-108
2.93247974268e-108
2.93247974268e-108
2.93247974269e-108
2.93247974269e-108
2.93247974269e-108
2.93247974269e-108
2.93247974269e-108
2.93247974269e-108
2.93247974269e-108
2.93247974269e-108
2.93247974269e-108
2.93247974269e-108
2.93247974269e-108
2.9324797427e-108
2.9324797427e-108
2.9324797427e-108
2.9324797427e-108
2.9324797427e-108
2.9324797427e-108
2.9324797427e-108
2.9324797427e-108
2.9324797427e-108
2.9324797427e-108
2.9324797427e-108
2.93247974271e-108
2.93247974271e-108
2.93247974276e-108
2.93247974727e-108
2.93248012992e-108
2.93250957695e-108
2.9348629286e-108
2.9989824674e-108
1.53923006536e-28
2.19397836023e-08
1.77721173901e-07
2.15727433633e-07
2.20877956394e-07
2.23278448453e-07
2.28520285979e-07
2.27706572166e-07
2.25028215015e-07
2.220665498e-07
2.19171420834e-07
2.16182942743e-07
2.13164957239e-07
2.10120498125e-07
2.07156333728e-07
2.0413163866e-07
2.01164079423e-07
1.98292970543e-07
1.95633165453e-07
1.93061080408e-07
1.90688269369e-07
1.88546492443e-07
1.86668714392e-07
1.85070129047e-07
1.83857837285e-07
1.82865630033e-07
1.82188783316e-07
1.81838422814e-07
2.93247974266e-108
2.93247974266e-108
2.93247974266e-108
2.93247974266e-108
2.93247974267e-108
2.93247974267e-108
2.93247974267e-108
2.93247974267e-108
2.93247974267e-108
2.93247974267e-108
2.93247974267e-108
2.93247974267e-108
2.93247974267e-108
2.93247974267e-108
2.93247974267e-108
2.93247974267e-108
2.93247974268e-108
2.93247974268e-108
2.93247974268e-108
2.93247974268e-108
2.93247974268e-108
2.93247974268e-108
2.93247974268e-108
2.93247974268e-108
2.93247974268e-108
2.93247974268e-108
2.93247974268e-108
2.93247974268e-108
2.93247974269e-108
2.93247974269e-108
2.93247974269e-108
2.93247974269e-108
2.93247974269e-108
2.93247974269e-108
2.93247974269e-108
2.93247974269e-108
2.93247974274e-108
2.9324797465e-108
2.93248006647e-108
2.93250503979e-108
2.93449852274e-108
2.99114245722e-108
9.69683329153e-29
1.77056686117e-08
1.74460834216e-07
2.16968478951e-07
2.2649677665e-07
2.31980879672e-07
2.37814433255e-07
2.37401549667e-07
2.34795348239e-07
2.31703364085e-07
2.28640375955e-07
2.25448477788e-07
2.22231422931e-07
2.18994917406e-07
2.15853087576e-07
2.12662550283e-07
2.09546675267e-07
2.06540558098e-07
2.0375648547e-07
2.01067093962e-07
1.98599665069e-07
1.96377740563e-07
1.94512247975e-07
1.92850177049e-07
1.91492780404e-07
1.90457916714e-07
1.89748596736e-07
1.89379110233e-07
2.93247974265e-108
2.93247974265e-108
2.93247974265e-108
2.93247974265e-108
2.93247974265e-108
2.93247974266e-108
2.93247974266e-108
2.93247974266e-108
2.93247974266e-108
2.93247974266e-108
2.93247974266e-108
2.93247974266e-108
2.93247974266e-108
2.93247974266e-108
2.93247974266e-108
2.93247974266e-108
2.93247974266e-108
2.93247974266e-108
2.93247974267e-108
2.93247974267e-108
2.93247974267e-108
2.93247974267e-108
2.93247974267e-108
2.93247974267e-108
2.93247974267e-108
2.93247974267e-108
2.93247974267e-108
2.93247974267e-108
2.93247974267e-108
2.93247974267e-108
2.93247974268e-108
2.93247974268e-108
2.93247974268e-108
2.93247974268e-108
2.93247974268e-108
2.93247974268e-108
2.93247974272e-108
2.93247974586e-108
2.93248001078e-108
2.93250081444e-108
2.93415676931e-108
2.98404438057e-108
4.97905677979e-29
1.29814166864e-08
1.70295326374e-07
2.17979521215e-07
2.31776166378e-07
2.40808854344e-07
2.47966803659e-07
2.4800776919e-07
2.45162982487e-07
2.41884284271e-07
2.38628123017e-07
2.35257722389e-07
2.31862400272e-07
2.28530372391e-07
2.2513630177e-07
2.21780184083e-07
2.18516442695e-07
2.15448073612e-07
2.12447580149e-07
2.09644931382e-07
2.07079022588e-07
2.04845926248e-07
2.028170901e-07
2.01085954164e-07
1.99673857292e-07
1.98589176149e-07
1.97843772258e-07
1.97455313721e-07
2.93247974264e-108
2.93247974264e-108
2.93247974264e-108
2.93247974264e-108
2.93247974265e-108
2.93247974265e-108
2.93247974265e-108
2.93247974265e-108
2.93247974265e-108
2.93247974265e-108
2.93247974265e-108
2.93247974265e-108
2.93247974265e-108
2.93247974265e-108
2.93247974265e-108
2.93247974265e-108
2.93247974265e-108
2.93247974266e-108
2.93247974266e-108
2.93247974266e-108
2.93247974266e-108
2.93247974266e-108
2.93247974266e-108
2.93247974266e-108
2.93247974266e-108
2.93247974266e-108
2.93247974266e-108
2.93247974266e-108
2.93247974266e-108
2.93247974266e-108
2.93247974267e-108
2.93247974267e-108
2.93247974267e-108
2.93247974267e-108
2.93247974267e-108
2.93247974267e-108
2.9324797427e-108
2.93247974537e-108
2.93247996766e-108
2.93249755978e-108
2.93391846249e-108
2.97851464388e-108
1.10047276945e-29
9.0672372796e-09
1.65691444403e-07
2.19436295707e-07
2.36632986306e-07
2.48882202455e-07
2.58183115126e-07
2.59300800554e-07
2.56398030513e-07
2.52850601697e-07
2.49324583403e-07
2.45695892482e-07
2.42085611556e-07
2.38553941268e-07
2.34984085893e-07
2.31462106821e-07
2.28117144608e-07
2.24811984083e-07
2.21677727843e-07
2.18760814557e-07
2.16171080138e-07
2.13764302509e-07
2.11648864986e-07
2.09841354833e-07
2.08365563964e-07
2.07236151606e-07
2.06536032533e-07
2.0604326306e-07
2.93247974263e-108
2.93247974264e-108
2.93247974264e-108
2.93247974264e-108
2.93247974264e-108
2.93247974264e-108
2.93247974264e-108
2.93247974264e-108
2.93247974264e-108
2.93247974264e-108
2.93247974264e-108
2.93247974264e-108
2.93247974264e-108
2.93247974264e-108
2.93247974264e-108
2.93247974265e-108
2.93247974265e-108
2.93247974265e-108
2.93247974265e-108
2.93247974265e-108
2.93247974265e-108
2.93247974265e-108
2.93247974265e-108
2.93247974265e-108
2.93247974265e-108
2.93247974265e-108
2.93247974265e-108
2.93247974265e-108
2.93247974265e-108
2.93247974266e-108
2.93247974266e-108
2.93247974266e-108
2.93247974266e-108
2.93247974266e-108
2.93247974266e-108
2.93247974266e-108
2.93247974269e-108
2.93247974495e-108
2.93247993075e-108
2.93249469583e-108
2.93368822478e-108
2.97426833229e-108
3.29857009787e-42
5.35708418647e-09
1.5945063111e-07
2.20154731325e-07
2.41877335844e-07
2.57643918379e-07
2.69816546934e-07
2.71448157333e-07
2.68214899117e-07
2.64384447188e-07
2.60598262079e-07
2.56739176875e-07
2.52889238374e-07
2.49137946657e-07
2.45364500414e-07
2.41654200513e-07
2.38136620832e-07
2.3468243047e-07
2.31403101545e-07
2.28435922914e-07
2.25644329012e-07
2.2314477856e-07
2.209410772e-07
2.1906765166e-07
2.17610699212e-07
2.16426397089e-07
2.15600677071e-07
2.15169177156e-07
2.93247974263e-108
2.93247974263e-108
2.93247974263e-108
2.93247974263e-108
2.93247974263e-108
2.93247974263e-108
2.93247974263e-108
2.93247974263e-108
2.93247974263e-108
2.93247974263e-108
2.93247974263e-108
2.93247974264e-108
2.93247974264e-108
2.93247974264e-108
2.93247974264e-108
2.93247974264e-108
2.93247974264e-108
2.93247974264e-108
2.93247974264e-108
2.93247974264e-108
2.93247974264e-108
2.93247974264e-108
2.93247974264e-108
2.93247974264e-108
2.93247974264e-108
2.93247974264e-108
2.93247974265e-108
2.93247974265e-108
2.93247974265e-108
2.93247974265e-108
2.93247974265e-108
2.93247974265e-108
2.93247974265e-108
2.93247974265e-108
2.93247974265e-108
2.93247974265e-108
2.93247974268e-108
2.93247974461e-108
2.93247989906e-108
2.93249214617e-108
2.93348041486e-108
2.97060434464e-108
2.70779745384e-42
2.34348316589e-09
1.51567474666e-07
2.21032383259e-07
2.46729969274e-07
2.67197238787e-07
2.80685854316e-07
2.83462826941e-07
2.80506036814e-07
2.76497468188e-07
2.72378112222e-07
2.68275075996e-07
2.64273055676e-07
2.60232945365e-07
2.5623849799e-07
2.52411209275e-07
2.48628511337e-07
2.45001676462e-07
2.41656644482e-07
2.38473058992e-07
2.35566075877e-07
2.32959032371e-07
2.30758039016e-07
2.28802234851e-07
2.27200640905e-07
2.25959632514e-07
2.25087759536e-07
2.24622092782e-07
2.93247974262e-108
2.93247974262e-108
2.93247974262e-108
2.93247974262e-108
2.93247974262e-108
2.93247974263e-108
2.93247974263e-108
2.93247974263e-108
2.93247974263e-108
2.93247974263e-108
2.93247974263e-108
2.93247974263e-108
2.93247974263e-108
2.93247974263e-108
2.93247974263e-108
2.93247974263e-108
2.93247974263e-108
2.93247974263e-108
2.93247974263e-108
2.93247974263e-108
2.93247974263e-108
2.93247974264e-108
2.93247974264e-108
2.93247974264e-108
2.93247974264e-108
2.93247974264e-108
2.93247974264e-108
2.93247974264e-108
2.93247974264e-108
2.93247974264e-108
2.93247974264e-108
2.93247974264e-108
2.93247974264e-108
2.93247974264e-108
2.93247974265e-108
2.93247974265e-108
2.93247974267e-108
2.93247974434e-108
2.9324798747e-108
2.93249002138e-108
2.93331018177e-108
2.96755685642e-108
2.31092720823e-42
6.6680535264e-10
1.41657470844e-07
2.21234078838e-07
2.51816975317e-07
2.75711653849e-07
2.92922926761e-07
2.96058379041e-07
2.93083471714e-07
2.88886326464e-07
2.84527358515e-07
2.80198307476e-07
2.7596461659e-07
2.71693184978e-07
2.67567734414e-07
2.63462741594e-07
2.59499488162e-07
2.55788044991e-07
2.52211798443e-07
2.48907729241e-07
2.45959505555e-07
2.4324534044e-07
2.40863024055e-07
2.38828256348e-07
2.3714870418e-07
2.35849189326e-07
2.3502117276e-07
2.34531107806e-07
2.93247974262e-108
2.93247974262e-108
2.93247974262e-108
2.93247974262e-108
2.93247974262e-108
2.93247974262e-108
2.93247974262e-108
2.93247974262e-108
2.93247974262e-108
2.93247974262e-108
2.93247974262e-108
2.93247974262e-108
2.93247974262e-108
2.93247974262e-108
2.93247974263e-108
2.93247974263e-108
2.93247974263e-108
2.93247974263e-108
2.93247974263e-108
2.93247974263e-108
2.93247974263e-108
2.93247974263e-108
2.93247974263e-108
2.93247974263e-108
2.93247974263e-108
2.93247974263e-108
2.93247974263e-108
2.93247974263e-108
2.93247974263e-108
2.93247974264e-108
2.93247974264e-108
2.93247974264e-108
2.93247974264e-108
2.93247974264e-108
2.93247974264e-108
2.93247974264e-108
2.93247974266e-108
2.93247974414e-108
2.93247985805e-108
2.93248860053e-108
2.93318200931e-108
2.96504151223e-108
1.95011769534e-42
2.11195720851e-10
1.33892625667e-07
2.2158104498e-07
2.5674318301e-07
2.84475032865e-07
3.04302399256e-07
3.09282315866e-07
3.06233325317e-07
3.01671624651e-07
2.970604116e-07
2.92539149423e-07
2.87993808812e-07
2.83492478939e-07
2.79156174057e-07
2.74859666361e-07
2.70780228458e-07
2.66823207613e-07
2.63101983755e-07
2.5973024164e-07
2.56579653344e-07
2.53762538249e-07
2.51284264516e-07
2.49254564177e-07
2.47508068058e-07
2.46150781141e-07
2.45185821924e-07
2.44663025019e-07
2.93247974261e-108
2.93247974261e-108
2.93247974261e-108
2.93247974261e-108
2.93247974261e-108
2.93247974261e-108
2.93247974262e-108
2.93247974262e-108
2.93247974262e-108
2.93247974262e-108
2.93247974262e-108
2.93247974262e-108
2.93247974262e-108
2.93247974262e-108
2.93247974262e-108
2.93247974262e-108
2.93247974262e-108
2.93247974262e-108
2.93247974262e-108
2.93247974262e-108
2.93247974262e-108
2.93247974262e-108
2.93247974263e-108
2.93247974263e-108
2.93247974263e-108
2.93247974263e-108
2.93247974263e-108
2.93247974263e-108
2.93247974263e-108
2.93247974263e-108
2.93247974263e-108
2.93247974263e-108
2.93247974263e-108
2.93247974263e-108
2.93247974263e-108
2.93247974264e-108
2.93247974265e-108
2.93247974395e-108
2.93247984368e-108
2.93248735675e-108
2.93306806917e-108
2.9626920328e-108
1.60784081313e-42
8.58777715877e-11
1.25350902334e-07
2.21454332215e-07
2.61267919666e-07
2.93539484215e-07
3.16443942525e-07
3.22574543105e-07
3.1949451303e-07
3.14730657068e-07
3.09867093013e-07
3.05089139554e-07
3.0028217807e-07
2.95617954078e-07
2.90983550798e-07
2.86491671154e-07
2.82245522941e-07
2.78123373703e-07
2.7432691358e-07
2.70734586885e-07
2.67454506396e-07
2.64609483431e-07
2.62039109922e-07
2.59839644732e-07
2.58024229017e-07
2.56602590735e-07
2.55661398999e-07
2.55078706332e-07
2.93247974261e-108
2.93247974261e-108
2.93247974261e-108
2.93247974261e-108
2.93247974261e-108
2.93247974261e-108
2.93247974261e-108
2.93247974261e-108
2.93247974261e-108
2.93247974261e-108
2.93247974261e-108
2.93247974261e-108
2.93247974261e-108
2.93247974262e-108
2.93247974262e-108
2.93247974262e-108
2.93247974262e-108
2.93247974262e-108
2.93247974262e-108
2.93247974262e-108
2.93247974262e-108
2.93247974262e-108
2.93247974262e-108
2.93247974262e-108
2.93247974262e-108
2.93247974262e-108
2.93247974262e-108
2.93247974262e-108
2.93247974263e-108
2.93247974263e-108
2.93247974263e-108
2.93247974263e-108
2.93247974263e-108
2.93247974263e-108
2.93247974263e-108
2.93247974263e-108
2.93247974265e-108
2.9324797438e-108
2.93247983214e-108
2.9324864188e-108
2.93296202422e-108
2.96068066841e-108
1.37882235471e-42
4.19707178535e-11
1.17846406466e-07
2.21079171798e-07
2.65690685768e-07
3.01998816975e-07
3.29311548794e-07
3.36723186283e-07
3.33313667035e-07
3.28105081747e-07
3.22908776552e-07
3.17824589296e-07
3.12751569357e-07
3.07840363626e-07
3.0298821597e-07
2.9836887552e-07
2.9387069325e-07
2.89660940379e-07
2.85632574726e-07
2.81897600914e-07
2.78587501264e-07
2.75543884345e-07
2.72873442474e-07
2.70673591984e-07
2.6878460139e-07
2.67293752944e-07
2.66214976304e-07
2.6557616284e-07
2.9324797426e-108
2.9324797426e-108
2.9324797426e-108
2.93247974261e-108
2.93247974261e-108
2.93247974261e-108
2.93247974261e-108
2.93247974261e-108
2.93247974261e-108
2.93247974261e-108
2.93247974261e-108
2.93247974261e-108
2.93247974261e-108
2.93247974261e-108
2.93247974261e-108
2.93247974261e-108
2.93247974261e-108
2.93247974261e-108
2.93247974261e-108
2.93247974261e-108
2.93247974262e-108
2.93247974262e-108
2.93247974262e-108
2.93247974262e-108
2.93247974262e-108
2.93247974262e-108
2.93247974262e-108
2.93247974262e-108
2.93247974262e-108
2.93247974262e-108
2.93247974262e-108
2.93247974262e-108
2.93247974262e-108
2.93247974263e-108
2.93247974263e-108
2.93247974263e-108
2.93247974264e-108
2.93247974368e-108
2.9324798234e-108
2.93248581273e-108
2.9328932162e-108
2.95881903231e-108
1.00562939412e-42
2.26244723412e-11
1.10382690367e-07
2.20734808571e-07
2.69658006684e-07
3.11822361763e-07
3.41230939848e-07
3.50098482974e-07
3.46825008427e-07
3.41366819366e-07
3.35963870956e-07
3.30594535702e-07
3.25356065332e-07
3.20145965688e-07
3.15157332141e-07
3.10274297902e-07
3.05664960018e-07
3.0121236307e-07
2.97117367206e-07
2.93256196846e-07
2.8973166857e-07
2.86665493e-07
2.83899818037e-07
2.81524391368e-07
2.79551926106e-07
2.78082636428e-07
2.76944832761e-07
2.76261547985e-07
2.9324797426e-108
2.9324797426e-108
2.9324797426e-108
2.9324797426e-108
2.9324797426e-108
2.9324797426e-108
2.9324797426e-108
2.9324797426e-108
2.9324797426e-108
2.93247974261e-108
2.93247974261e-108
2.93247974261e-108
2.93247974261e-108
2.93247974261e-108
2.93247974261e-108
2.93247974261e-108
2.93247974261e-108
2.93247974261e-108
2.93247974261e-108
2.93247974261e-108
2.93247974261e-108
2.93247974261e-108
2.93247974261e-108
2.93247974261e-108
2.93247974261e-108
2.93247974262e-108
2.93247974262e-108
2.93247974262e-108
2.93247974262e-108
2.93247974262e-108
2.93247974262e-108
2.93247974262e-108
2.93247974262e-108
2.93247974262e-108