/*--------------------------------*- C++ -*----------------------------------*\
| =========                 |                                                 |
| \\      /  F ield         | foam-extend: Open Source CFD                    |
|  \\    /   O peration     | Version:     4.1                                |
|   \\  /    A nd           | Web:         http://www.foam-extend.org         |
|    \\/     M anipulation  |                                                 |
\*---------------------------------------------------------------------------*/
FoamFile
{
    version     2.0;
    format      ascii;
    class       volScalarField;
    location    "0.0001";
    object      OPlus;
}
// * * * * * * * * * * * * * * * * * * * * * * * * * * * * * * * * * * * * * //

dimensions      [0 0 0 0 0 0 0];

internalField   nonuniform List<scalar> 
8400
(
6.45488962621e-195
6.45488962626e-195
6.45488962631e-195
6.45488962635e-195
6.4548896264e-195
6.45488962644e-195
6.45488962649e-195
6.45488962653e-195
6.45488962658e-195
6.45488962662e-195
6.45488962666e-195
6.4548896267e-195
6.45488962674e-195
6.45488962678e-195
6.45488962682e-195
6.45488962686e-195
6.4548896269e-195
6.45488962694e-195
6.45488962698e-195
6.45488962702e-195
6.45488962706e-195
6.45488962709e-195
6.45488962713e-195
6.45488962717e-195
6.45488962721e-195
6.45488962724e-195
6.45488962728e-195
6.45488962732e-195
6.45488962735e-195
6.45488962739e-195
6.45488962742e-195
6.45488962746e-195
6.4548896275e-195
6.45488962753e-195
6.45488962757e-195
6.4548896276e-195
6.45488962765e-195
6.45488962845e-195
6.45488968982e-195
6.45489461097e-195
6.45524865169e-195
6.48198910853e-195
6.92201453465e-195
2.43699181022e-18
3.69225683148e-05
0.0373452489419
0.0978438789958
0.136949927144
0.154434791716
0.161048233707
0.163188333591
0.164108819957
0.164780091803
0.165464189648
0.166152162083
0.166850700925
0.167537457564
0.168255673094
0.168977250774
0.16968769047
0.170354660603
0.171016935792
0.171642534008
0.172217121506
0.172732270687
0.173149085385
0.173517609959
0.173799158925
0.173991356904
0.174195290729
6.45488962143e-195
6.45488962145e-195
6.45488962147e-195
6.45488962149e-195
6.4548896215e-195
6.45488962152e-195
6.45488962154e-195
6.45488962155e-195
6.45488962157e-195
6.45488962159e-195
6.4548896216e-195
6.45488962162e-195
6.45488962163e-195
6.45488962165e-195
6.45488962166e-195
6.45488962168e-195
6.4548896217e-195
6.45488962171e-195
6.45488962173e-195
6.45488962174e-195
6.45488962176e-195
6.45488962177e-195
6.45488962179e-195
6.4548896218e-195
6.45488962182e-195
6.45488962183e-195
6.45488962185e-195
6.45488962186e-195
6.45488962188e-195
6.45488962189e-195
6.45488962191e-195
6.45488962192e-195
6.45488962194e-195
6.45488962195e-195
6.45488962197e-195
6.45488962198e-195
6.45488962205e-195
6.45488962645e-195
6.45488998447e-195
6.45491845551e-195
6.457230753e-195
6.53916016872e-195
1.07322962069e-72
6.30509334162e-09
0.00470101611479
0.0669893764453
0.120043333653
0.149384332404
0.160449969656
0.164174801243
0.165334811798
0.165961528835
0.166552168612
0.167156086333
0.167777801968
0.168421826674
0.169089709016
0.169742464455
0.170421788409
0.171087163011
0.171731913908
0.172344643747
0.172918413957
0.173446279388
0.173889508226
0.174296883593
0.174634115545
0.174894657639
0.175070835637
0.175228365019
6.4548896202e-195
6.45488962021e-195
6.45488962022e-195
6.45488962023e-195
6.45488962023e-195
6.45488962024e-195
6.45488962025e-195
6.45488962026e-195
6.45488962027e-195
6.45488962028e-195
6.45488962029e-195
6.4548896203e-195
6.45488962031e-195
6.45488962032e-195
6.45488962033e-195
6.45488962034e-195
6.45488962035e-195
6.45488962035e-195
6.45488962036e-195
6.45488962037e-195
6.45488962038e-195
6.45488962039e-195
6.4548896204e-195
6.45488962041e-195
6.45488962042e-195
6.45488962042e-195
6.45488962043e-195
6.45488962044e-195
6.45488962045e-195
6.45488962046e-195
6.45488962047e-195
6.45488962048e-195
6.45488962049e-195
6.4548896205e-195
6.4548896205e-195
6.45488962052e-195
6.45488962067e-195
6.45488963312e-195
6.4548906823e-195
6.45497074587e-195
6.4614825967e-195
6.6281916351e-195
5.23275697308e-35
2.26153107299e-06
0.0183723707103
0.0822560380717
0.130134400349
0.153613428703
0.162298071322
0.165031133101
0.165803547799
0.166346206323
0.166900872126
0.167475190978
0.168065550307
0.16868143328
0.169317165066
0.169970545946
0.170594158443
0.171227595362
0.171837459794
0.1724136814
0.172953586697
0.173449284596
0.173863542156
0.174244133073
0.174558377445
0.174800291146
0.174962533455
0.175098360109
6.45488961967e-195
6.45488961968e-195
6.45488961969e-195
6.45488961969e-195
6.4548896197e-195
6.45488961971e-195
6.45488961971e-195
6.45488961972e-195
6.45488961973e-195
6.45488961973e-195
6.45488961974e-195
6.45488961975e-195
6.45488961975e-195
6.45488961976e-195
6.45488961977e-195
6.45488961977e-195
6.45488961978e-195
6.45488961978e-195
6.45488961979e-195
6.4548896198e-195
6.4548896198e-195
6.45488961981e-195
6.45488961982e-195
6.45488961982e-195
6.45488961983e-195
6.45488961983e-195
6.45488961984e-195
6.45488961985e-195
6.45488961985e-195
6.45488961986e-195
6.45488961987e-195
6.45488961987e-195
6.45488961988e-195
6.45488961988e-195
6.45488961989e-195
6.4548896199e-195
6.45488962014e-195
6.45488963952e-195
6.45489126789e-195
6.45501559481e-195
6.46516600883e-195
6.6942580712e-195
3.02878585462e-31
6.78925504134e-06
0.0252366490004
0.0893033914938
0.13360408182
0.154457544454
0.162434382872
0.164709557747
0.165443649298
0.165986588635
0.166539479789
0.16711056878
0.167699378099
0.168314680791
0.16895376303
0.169599490293
0.170212640422
0.170832781935
0.171431783324
0.172002967463
0.172535965945
0.17302131593
0.173424418612
0.173794397684
0.174098925968
0.174331775978
0.174487281558
0.174615198321
6.45488961939e-195
6.45488961939e-195
6.4548896194e-195
6.4548896194e-195
6.45488961941e-195
6.45488961941e-195
6.45488961942e-195
6.45488961942e-195
6.45488961943e-195
6.45488961943e-195
6.45488961944e-195
6.45488961944e-195
6.45488961945e-195
6.45488961945e-195
6.45488961946e-195
6.45488961946e-195
6.45488961947e-195
6.45488961947e-195
6.45488961948e-195
6.45488961948e-195
6.45488961949e-195
6.45488961949e-195
6.4548896195e-195
6.4548896195e-195
6.45488961951e-195
6.45488961951e-195
6.45488961952e-195
6.45488961952e-195
6.45488961953e-195
6.45488961953e-195
6.45488961954e-195
6.45488961954e-195
6.45488961955e-195
6.45488961955e-195
6.45488961956e-195
6.45488961957e-195
6.45488961984e-195
6.4548896424e-195
6.45489154189e-195
6.45503675276e-195
6.46692669404e-195
6.72315450617e-195
3.01162234203e-26
9.4580138431e-06
0.0274297144342
0.0905542399184
0.133938153902
0.154649398228
0.16180454151
0.163858921493
0.164628362705
0.165175745281
0.165747057189
0.166325593941
0.166925488171
0.167546443239
0.168190516573
0.168817686596
0.16945739353
0.170079545353
0.170677970607
0.171250049345
0.17178395428
0.172266165532
0.172668003611
0.173036679757
0.173342998216
0.173579890526
0.17373863548
0.173867865579
6.45488961921e-195
6.45488961921e-195
6.45488961922e-195
6.45488961922e-195
6.45488961923e-195
6.45488961923e-195
6.45488961923e-195
6.45488961924e-195
6.45488961924e-195
6.45488961925e-195
6.45488961925e-195
6.45488961925e-195
6.45488961926e-195
6.45488961926e-195
6.45488961927e-195
6.45488961927e-195
6.45488961928e-195
6.45488961928e-195
6.45488961928e-195
6.45488961929e-195
6.45488961929e-195
6.4548896193e-195
6.4548896193e-195
6.4548896193e-195
6.45488961931e-195
6.45488961931e-195
6.45488961932e-195
6.45488961932e-195
6.45488961932e-195
6.45488961933e-195
6.45488961933e-195
6.45488961934e-195
6.45488961934e-195
6.45488961934e-195
6.45488961935e-195
6.45488961936e-195
6.45488961963e-195
6.4548896425e-195
6.45489156853e-195
6.45503851753e-195
6.46704461236e-195
6.72588092253e-195
4.1152172736e-26
9.6762524592e-06
0.0275619294422
0.0900187279835
0.133749028002
0.153140017666
0.160601686419
0.162730544502
0.163480926843
0.164045222442
0.164625505792
0.165216150984
0.165824548842
0.166456012544
0.167112121898
0.167748021932
0.168399933415
0.169030713044
0.169636858219
0.17021694003
0.17075859379
0.171224897963
0.171657391277
0.172028450589
0.172335492751
0.172572223412
0.172732735872
0.172864466894
6.45488961908e-195
6.45488961909e-195
6.45488961909e-195
6.4548896191e-195
6.4548896191e-195
6.4548896191e-195
6.45488961911e-195
6.45488961911e-195
6.45488961911e-195
6.45488961912e-195
6.45488961912e-195
6.45488961912e-195
6.45488961913e-195
6.45488961913e-195
6.45488961913e-195
6.45488961914e-195
6.45488961914e-195
6.45488961915e-195
6.45488961915e-195
6.45488961915e-195
6.45488961916e-195
6.45488961916e-195
6.45488961916e-195
6.45488961917e-195
6.45488961917e-195
6.45488961917e-195
6.45488961918e-195
6.45488961918e-195
6.45488961918e-195
6.45488961919e-195
6.45488961919e-195
6.45488961919e-195
6.4548896192e-195
6.4548896192e-195
6.4548896192e-195
6.45488961921e-195
6.45488961947e-195
6.45488964091e-195
6.45489144947e-195
6.45502986662e-195
6.46640750317e-195
6.7158011642e-195
1.05569985544e-26
8.55551318486e-06
0.0263455465441
0.088829008202
0.131396924913
0.152042730514
0.159023080031
0.161253620375
0.162033658896
0.162608488714
0.163216120984
0.163834407476
0.164463716809
0.165112311727
0.165778529299
0.166425133667
0.167089774491
0.167733364709
0.168356593084
0.168949396979
0.169501859882
0.169976280898
0.17041487719
0.17078842272
0.17109641599
0.171336003959
0.171500671553
0.17163803136
6.45488961899e-195
6.454889619e-195
6.454889619e-195
6.454889619e-195
6.45488961901e-195
6.45488961901e-195
6.45488961901e-195
6.45488961902e-195
6.45488961902e-195
6.45488961902e-195
6.45488961903e-195
6.45488961903e-195
6.45488961903e-195
6.45488961904e-195
6.45488961904e-195
6.45488961904e-195
6.45488961904e-195
6.45488961905e-195
6.45488961905e-195
6.45488961905e-195
6.45488961906e-195
6.45488961906e-195
6.45488961906e-195
6.45488961907e-195
6.45488961907e-195
6.45488961907e-195
6.45488961907e-195
6.45488961908e-195
6.45488961908e-195
6.45488961908e-195
6.45488961909e-195
6.45488961909e-195
6.45488961909e-195
6.4548896191e-195
6.4548896191e-195
6.4548896191e-195
6.45488961934e-195
6.4548896388e-195
6.45489128624e-195
6.45501786437e-195
6.4653756961e-195
6.69844593957e-195
3.46933161383e-31
6.80882829715e-06
0.0245020860976
0.0862189053139
0.129550483109
0.149701133873
0.157337093179
0.159529210032
0.160319768652
0.16092336134
0.161556526764
0.162197076401
0.16284959789
0.163519917023
0.164205902824
0.164869789676
0.165548905215
0.166208871544
0.166847636838
0.167453863724
0.167993342469
0.16850469155
0.168951564189
0.169329750515
0.169640852113
0.169883514426
0.170052647219
0.17019474151
6.45488961893e-195
6.45488961893e-195
6.45488961893e-195
6.45488961893e-195
6.45488961894e-195
6.45488961894e-195
6.45488961894e-195
6.45488961895e-195
6.45488961895e-195
6.45488961895e-195
6.45488961895e-195
6.45488961896e-195
6.45488961896e-195
6.45488961896e-195
6.45488961896e-195
6.45488961897e-195
6.45488961897e-195
6.45488961897e-195
6.45488961898e-195
6.45488961898e-195
6.45488961898e-195
6.45488961898e-195
6.45488961899e-195
6.45488961899e-195
6.45488961899e-195
6.45488961899e-195
6.454889619e-195
6.454889619e-195
6.454889619e-195
6.45488961901e-195
6.45488961901e-195
6.45488961901e-195
6.45488961901e-195
6.45488961902e-195
6.45488961902e-195
6.45488961902e-195
6.45488961923e-195
6.45488963633e-195
6.45489108487e-195
6.4550020214e-195
6.4640341031e-195
6.67742177971e-195
1.29991751507e-31
5.10866219414e-06
0.0223702615123
0.0836512194221
0.126559032883
0.147627201114
0.155232268054
0.157491472414
0.158332237548
0.158993178052
0.15963482831
0.160306430433
0.160989678096
0.161683470305
0.162390514826
0.163076390406
0.163781058864
0.164463163029
0.165119721849
0.165741974738
0.166295203285
0.166817731467
0.167276273214
0.16766535894
0.167983171454
0.168230258664
0.168401022067
0.168540116171
6.45488961887e-195
6.45488961887e-195
6.45488961888e-195
6.45488961888e-195
6.45488961888e-195
6.45488961888e-195
6.45488961889e-195
6.45488961889e-195
6.45488961889e-195
6.45488961889e-195
6.4548896189e-195
6.4548896189e-195
6.4548896189e-195
6.4548896189e-195
6.45488961891e-195
6.45488961891e-195
6.45488961891e-195
6.45488961891e-195
6.45488961892e-195
6.45488961892e-195
6.45488961892e-195
6.45488961892e-195
6.45488961893e-195
6.45488961893e-195
6.45488961893e-195
6.45488961893e-195
6.45488961894e-195
6.45488961894e-195
6.45488961894e-195
6.45488961894e-195
6.45488961895e-195
6.45488961895e-195
6.45488961895e-195
6.45488961895e-195
6.45488961896e-195
6.45488961896e-195
6.45488961914e-195
6.4548896338e-195
6.45489087552e-195
6.45498613851e-195
6.46271357377e-195
6.65549887867e-195
1.34742671427e-34
3.6098268594e-06
0.0197761782951
0.080610707857
0.124201427765
0.144757041557
0.152801315916
0.155263420192
0.15615602278
0.156825609723
0.157485697341
0.158184908124
0.158896652433
0.159623574973
0.160358338498
0.161073599374
0.161798563302
0.162502440239
0.163177032542
0.163792062897
0.164388632578
0.164926614875
0.165398455657
0.165799471792
0.166125257974
0.166374709483
0.166545207836
0.166680393319
6.45488961883e-195
6.45488961883e-195
6.45488961883e-195
6.45488961884e-195
6.45488961884e-195
6.45488961884e-195
6.45488961884e-195
6.45488961884e-195
6.45488961885e-195
6.45488961885e-195
6.45488961885e-195
6.45488961885e-195
6.45488961886e-195
6.45488961886e-195
6.45488961886e-195
6.45488961886e-195
6.45488961886e-195
6.45488961887e-195
6.45488961887e-195
6.45488961887e-195
6.45488961887e-195
6.45488961888e-195
6.45488961888e-195
6.45488961888e-195
6.45488961888e-195
6.45488961888e-195
6.45488961889e-195
6.45488961889e-195
6.45488961889e-195
6.45488961889e-195
6.4548896189e-195
6.4548896189e-195
6.4548896189e-195
6.4548896189e-195
6.45488961891e-195
6.45488961891e-195
6.45488961906e-195
6.45488963177e-195
6.45489070711e-195
6.45497296614e-195
6.46158971859e-195
6.63416312047e-195
6.21676257921e-35
2.41686682657e-06
0.0171706602862
0.0770885508601
0.120879861443
0.14180694444
0.150179163265
0.152773936118
0.153729244913
0.154443262388
0.155136427348
0.155865975966
0.156612784303
0.157363870903
0.158100330928
0.158863398855
0.159612148388
0.160339648105
0.161037587671
0.161669823263
0.162280719305
0.162830387629
0.163313156829
0.163724914448
0.164062491165
0.164322106876
0.164472497188
0.164636871769
6.45488961879e-195
6.45488961879e-195
6.4548896188e-195
6.4548896188e-195
6.4548896188e-195
6.4548896188e-195
6.45488961881e-195
6.45488961881e-195
6.45488961881e-195
6.45488961881e-195
6.45488961881e-195
6.45488961882e-195
6.45488961882e-195
6.45488961882e-195
6.45488961882e-195
6.45488961882e-195
6.45488961883e-195
6.45488961883e-195
6.45488961883e-195
6.45488961883e-195
6.45488961883e-195
6.45488961884e-195
6.45488961884e-195
6.45488961884e-195
6.45488961884e-195
6.45488961884e-195
6.45488961885e-195
6.45488961885e-195
6.45488961885e-195
6.45488961885e-195
6.45488961886e-195
6.45488961886e-195
6.45488961886e-195
6.45488961886e-195
6.45488961886e-195
6.45488961887e-195
6.454889619e-195
6.45488962979e-195
6.45489054503e-195
6.45496097823e-195
6.46058986954e-195
6.61395492799e-195
1.91114021774e-46
1.44934036939e-06
0.0146312159355
0.0733928352379
0.117263157597
0.139317015398
0.147195986033
0.150016615074
0.151052817955
0.15182862607
0.152569680837
0.153337402298
0.154111714769
0.154894311835
0.155656774526
0.156444241706
0.157220891964
0.157975955115
0.158673991499
0.159352872969
0.159978359678
0.160542767828
0.16103755493
0.161461540711
0.161782959028
0.162050553164
0.162232900246
0.162371383087
6.45488961876e-195
6.45488961876e-195
6.45488961877e-195
6.45488961877e-195
6.45488961877e-195
6.45488961877e-195
6.45488961877e-195
6.45488961878e-195
6.45488961878e-195
6.45488961878e-195
6.45488961878e-195
6.45488961878e-195
6.45488961879e-195
6.45488961879e-195
6.45488961879e-195
6.45488961879e-195
6.45488961879e-195
6.4548896188e-195
6.4548896188e-195
6.4548896188e-195
6.4548896188e-195
6.4548896188e-195
6.45488961881e-195
6.45488961881e-195
6.45488961881e-195
6.45488961881e-195
6.45488961881e-195
6.45488961882e-195
6.45488961882e-195
6.45488961882e-195
6.45488961882e-195
6.45488961882e-195
6.45488961883e-195
6.45488961883e-195
6.45488961883e-195
6.45488961883e-195
6.45488961894e-195
6.45488962795e-195
6.45489039327e-195
6.45495012598e-195
6.45971826118e-195
6.59520270922e-195
1.22474972258e-46
8.11147908745e-07
0.0119098081957
0.069818232102
0.113402596803
0.135716497619
0.144176187544
0.14713852135
0.148184103814
0.148983727886
0.149754948988
0.150566468627
0.151384045169
0.152206578013
0.153005597629
0.153825192759
0.154630962735
0.155411221984
0.156134396324
0.156837875898
0.157484499693
0.158066610371
0.158551710688
0.158987450081
0.159343962613
0.159616165258
0.159801862924
0.159940740999
6.45488961874e-195
6.45488961874e-195
6.45488961874e-195
6.45488961874e-195
6.45488961874e-195
6.45488961875e-195
6.45488961875e-195
6.45488961875e-195
6.45488961875e-195
6.45488961875e-195
6.45488961875e-195
6.45488961876e-195
6.45488961876e-195
6.45488961876e-195
6.45488961876e-195
6.45488961876e-195
6.45488961877e-195
6.45488961877e-195
6.45488961877e-195
6.45488961877e-195
6.45488961877e-195
6.45488961878e-195
6.45488961878e-195
6.45488961878e-195
6.45488961878e-195
6.45488961878e-195
6.45488961878e-195
6.45488961879e-195
6.45488961879e-195
6.45488961879e-195
6.45488961879e-195
6.45488961879e-195
6.4548896188e-195
6.4548896188e-195
6.4548896188e-195
6.4548896188e-195
6.4548896189e-195
6.45488962641e-195
6.45489026007e-195
6.45494001954e-195
6.45890083429e-195
6.57822509271e-195
6.38293502868e-47
3.46370306811e-07
0.00895163942653
0.0662463171577
0.109553496944
0.131994962706
0.140865650814
0.143979253587
0.145125063652
0.145967841538
0.146777874939
0.147621614141
0.148472833431
0.149308560683
0.15016779088
0.151022386613
0.151855882227
0.15263816855
0.153409999508
0.154134621737
0.154803438987
0.155385236189
0.155914991691
0.156363385381
0.156725320163
0.157000104272
0.157185663522
0.157320583865
6.45488961871e-195
6.45488961872e-195
6.45488961872e-195
6.45488961872e-195
6.45488961872e-195
6.45488961872e-195
6.45488961872e-195
6.45488961873e-195
6.45488961873e-195
6.45488961873e-195
6.45488961873e-195
6.45488961873e-195
6.45488961874e-195
6.45488961874e-195
6.45488961874e-195
6.45488961874e-195
6.45488961874e-195
6.45488961874e-195
6.45488961875e-195
6.45488961875e-195
6.45488961875e-195
6.45488961875e-195
6.45488961875e-195
6.45488961875e-195
6.45488961876e-195
6.45488961876e-195
6.45488961876e-195
6.45488961876e-195
6.45488961876e-195
6.45488961877e-195
6.45488961877e-195
6.45488961877e-195
6.45488961877e-195
6.45488961877e-195
6.45488961878e-195
6.45488961878e-195
6.45488961886e-195
6.45488962524e-195
6.45489015692e-195
6.45493223484e-195
6.45833083739e-195
6.56499872823e-195
1.42867366432e-47
1.28345727934e-07
0.00661633877311
0.0620910796368
0.105780506416
0.128434220397
0.137485720719
0.140608460227
0.141814362696
0.142714997316
0.143576834592
0.144471659743
0.145368429881
0.146249813108
0.147146976902
0.148034397467
0.148874143749
0.149708602881
0.150502324548
0.15124952706
0.151917468584
0.152543720817
0.153090520182
0.153552332289
0.15392382892
0.154203816654
0.154369257778
0.154531227822
6.45488961869e-195
6.4548896187e-195
6.4548896187e-195
6.4548896187e-195
6.4548896187e-195
6.4548896187e-195
6.45488961871e-195
6.45488961871e-195
6.45488961871e-195
6.45488961871e-195
6.45488961871e-195
6.45488961871e-195
6.45488961872e-195
6.45488961872e-195
6.45488961872e-195
6.45488961872e-195
6.45488961872e-195
6.45488961872e-195
6.45488961873e-195
6.45488961873e-195
6.45488961873e-195
6.45488961873e-195
6.45488961873e-195
6.45488961873e-195
6.45488961874e-195
6.45488961874e-195
6.45488961874e-195
6.45488961874e-195
6.45488961874e-195
6.45488961875e-195
6.45488961875e-195
6.45488961875e-195
6.45488961875e-195
6.45488961875e-195
6.45488961875e-195
6.45488961876e-195
6.45488961883e-195
6.45488962424e-195
6.45489006864e-195
6.45492538467e-195
6.45778014066e-195
6.55484213887e-195
1.27629894681e-72
2.98379398604e-08
0.00416478791731
0.0583391961948
0.101656872374
0.124553753624
0.133630070913
0.136966264491
0.138311680308
0.139273368596
0.140191663027
0.141133764263
0.142078659032
0.143001114619
0.14393982102
0.144867176392
0.145742058666
0.146602532233
0.147422778184
0.14816933182
0.14888314655
0.149526650085
0.150092633952
0.150567977667
0.150926587276
0.151215007984
0.151411219316
0.151548032301
6.45488961868e-195
6.45488961868e-195
6.45488961868e-195
6.45488961868e-195
6.45488961869e-195
6.45488961869e-195
6.45488961869e-195
6.45488961869e-195
6.45488961869e-195
6.45488961869e-195
6.45488961869e-195
6.4548896187e-195
6.4548896187e-195
6.4548896187e-195
6.4548896187e-195
6.4548896187e-195
6.4548896187e-195
6.45488961871e-195
6.45488961871e-195
6.45488961871e-195
6.45488961871e-195
6.45488961871e-195
6.45488961871e-195
6.45488961872e-195
6.45488961872e-195
6.45488961872e-195
6.45488961872e-195
6.45488961872e-195
6.45488961872e-195
6.45488961873e-195
6.45488961873e-195
6.45488961873e-195
6.45488961873e-195
6.45488961873e-195
6.45488961874e-195
6.45488961874e-195
6.4548896188e-195
6.45488962341e-195
6.45488999284e-195
6.45491928623e-195
6.4572830881e-195
6.54607838775e-195
1.05654000318e-72
3.06548289941e-09
0.0021705086678
0.0542589402505
0.0975927208402
0.120276616296
0.129962534846
0.13333697711
0.134649593504
0.135637116638
0.136627117427
0.137621287152
0.138589603249
0.139576164597
0.14055845382
0.141500640307
0.142434102155
0.143329670597
0.144155145625
0.144952070415
0.145687341743
0.146350636282
0.146904173414
0.147392322663
0.147784206086
0.148083910401
0.148290101597
0.148431167967
6.45488961866e-195
6.45488961867e-195
6.45488961867e-195
6.45488961867e-195
6.45488961867e-195
6.45488961867e-195
6.45488961867e-195
6.45488961868e-195
6.45488961868e-195
6.45488961868e-195
6.45488961868e-195
6.45488961868e-195
6.45488961868e-195
6.45488961868e-195
6.45488961869e-195
6.45488961869e-195
6.45488961869e-195
6.45488961869e-195
6.45488961869e-195
6.45488961869e-195
6.4548896187e-195
6.4548896187e-195
6.4548896187e-195
6.4548896187e-195
6.4548896187e-195
6.4548896187e-195
6.45488961871e-195
6.45488961871e-195
6.45488961871e-195
6.45488961871e-195
6.45488961871e-195
6.45488961871e-195
6.45488961872e-195
6.45488961872e-195
6.45488961872e-195
6.45488961872e-195
6.45488961878e-195
6.45488962277e-195
6.45488993457e-195
6.45491420404e-195
6.45687591411e-195
6.53878921789e-195
9.08001428745e-73
8.50489518366e-11
0.000871074395246
0.0506714761145
0.0932797329371
0.116304132209
0.125799467851
0.129493243241
0.130863138935
0.131885378926
0.132921107421
0.13395914029
0.134976267467
0.13600822878
0.13700396774
0.138004109333
0.138971975777
0.139875837141
0.140754921897
0.141572714341
0.142306321584
0.142989349438
0.143585148716
0.144086387917
0.144492105585
0.144801115953
0.144988420035
0.145131192293
6.45488961865e-195
6.45488961865e-195
6.45488961865e-195
6.45488961866e-195
6.45488961866e-195
6.45488961866e-195
6.45488961866e-195
6.45488961866e-195
6.45488961866e-195
6.45488961867e-195
6.45488961867e-195
6.45488961867e-195
6.45488961867e-195
6.45488961867e-195
6.45488961867e-195
6.45488961867e-195
6.45488961868e-195
6.45488961868e-195
6.45488961868e-195
6.45488961868e-195
6.45488961868e-195
6.45488961868e-195
6.45488961869e-195
6.45488961869e-195
6.45488961869e-195
6.45488961869e-195
6.45488961869e-195
6.45488961869e-195
6.4548896187e-195
6.4548896187e-195
6.4548896187e-195
6.4548896187e-195
6.4548896187e-195
6.4548896187e-195
6.45488961871e-195
6.45488961871e-195
6.45488961876e-195
6.45488962229e-195
6.45488989475e-195
6.45491080555e-195
6.45656934334e-195
6.53277286289e-195
7.70739360875e-73
4.25039150811e-12
0.000463019643228
0.0467368319083
0.0889137441353
0.112132256418
0.121857719431
0.125420392996
0.126867311687
0.127978235624
0.129063319882
0.130125790596
0.131205721023
0.13228386796
0.133323409772
0.134360095356
0.135342340628
0.136301317873
0.137206738467
0.138029387329
0.138807914247
0.139505934094
0.14011756018
0.140607054902
0.141026047709
0.141345038095
0.141564545803
0.141702994597
6.45488961864e-195
6.45488961864e-195
6.45488961864e-195
6.45488961864e-195
6.45488961865e-195
6.45488961865e-195
6.45488961865e-195
6.45488961865e-195
6.45488961865e-195
6.45488961865e-195
6.45488961865e-195
6.45488961866e-195
6.45488961866e-195
6.45488961866e-195
6.45488961866e-195
6.45488961866e-195
6.45488961866e-195
6.45488961867e-195
6.45488961867e-195
6.45488961867e-195
6.45488961867e-195
6.45488961867e-195
6.45488961867e-195
6.45488961867e-195
6.45488961868e-195
6.45488961868e-195
6.45488961868e-195
6.45488961868e-195
6.45488961868e-195
6.45488961869e-195
6.45488961869e-195
6.45488961869e-195
6.45488961869e-195
6.45488961869e-195
6.45488961869e-195
6.4548896187e-195
6.45488961874e-195
6.45488962185e-195
6.45488986038e-195
6.45490783061e-195
6.4562968143e-195
6.52715323341e-195
6.38784597537e-73
5.03845361125e-13
0.000263718062353
0.0431605558203
0.0846640176983
0.107767936808
0.117594544157
0.121270935945
0.122789878525
0.123937485074
0.125071750979
0.126182686348
0.127307950763
0.128403100504
0.129505986433
0.130584154344
0.131601153317
0.132594254722
0.133503284615
0.1343713954
0.135169278492
0.135860048383
0.136488301277
0.137019194746
0.137448496804
0.137775640787
0.137976223648
0.138120031632
6.45488961863e-195
6.45488961863e-195
6.45488961863e-195
6.45488961863e-195
6.45488961864e-195
6.45488961864e-195
6.45488961864e-195
6.45488961864e-195
6.45488961864e-195
6.45488961864e-195
6.45488961864e-195
6.45488961865e-195
6.45488961865e-195
6.45488961865e-195
6.45488961865e-195
6.45488961865e-195
6.45488961865e-195
6.45488961865e-195
6.45488961866e-195
6.45488961866e-195
6.45488961866e-195
6.45488961866e-195
6.45488961866e-195
6.45488961866e-195
6.45488961867e-195
6.45488961867e-195
6.45488961867e-195
6.45488961867e-195
6.45488961867e-195
6.45488961867e-195
6.45488961868e-195
6.45488961868e-195
6.45488961868e-195
6.45488961868e-195
6.45488961868e-195
6.45488961869e-195
6.45488961872e-195
6.45488962148e-195
6.45488983279e-195
6.45490558715e-195
6.45604316947e-195
6.52234232829e-195
5.50233505631e-73
1.07497937138e-13
0.000180445263601
0.0398871544526
0.0803613790407
0.103546719999
0.113024245804
0.11680942057
0.118491284524
0.119735742752
0.120931900223
0.122101729294
0.123279206698
0.124422831952
0.125569405054
0.126665030336
0.127740738809
0.128741356958
0.129701221887
0.130594242025
0.131383856654
0.132117894545
0.132760058726
0.133277662648
0.133719651639
0.134058529842
0.134291211195
0.134436852015
6.45488961862e-195
6.45488961862e-195
6.45488961862e-195
6.45488961862e-195
6.45488961863e-195
6.45488961863e-195
6.45488961863e-195
6.45488961863e-195
6.45488961863e-195
6.45488961863e-195
6.45488961863e-195
6.45488961864e-195
6.45488961864e-195
6.45488961864e-195
6.45488961864e-195
6.45488961864e-195
6.45488961864e-195
6.45488961864e-195
6.45488961865e-195
6.45488961865e-195
6.45488961865e-195
6.45488961865e-195
6.45488961865e-195
6.45488961865e-195
6.45488961866e-195
6.45488961866e-195
6.45488961866e-195
6.45488961866e-195
6.45488961866e-195
6.45488961867e-195
6.45488961867e-195
6.45488961867e-195
6.45488961867e-195
6.45488961867e-195
6.45488961867e-195
6.45488961868e-195
6.45488961871e-195
6.45488962119e-195
6.45488981189e-195
6.45490413753e-195
6.45587859022e-195
6.51788955251e-195
4.02868467006e-73
3.23101535196e-14
0.000130754826952
0.0365001455177
0.0763052841401
0.09871067301
0.108699964171
0.1125012276
0.114189413193
0.115476356684
0.116707693746
0.117937177883
0.119134514716
0.120340480132
0.121501553163
0.122653467513
0.123740038934
0.124794853844
0.125757392077
0.126672497237
0.127510188361
0.128233863722
0.128890525623
0.129447879985
0.129900937187
0.13022199171
0.130467058479
0.130616661413
6.45488961861e-195
6.45488961861e-195
6.45488961861e-195
6.45488961862e-195
6.45488961862e-195
6.45488961862e-195
6.45488961862e-195
6.45488961862e-195
6.45488961862e-195
6.45488961862e-195
6.45488961863e-195
6.45488961863e-195
6.45488961863e-195
6.45488961863e-195
6.45488961863e-195
6.45488961863e-195
6.45488961863e-195
6.45488961864e-195
6.45488961864e-195
6.45488961864e-195
6.45488961864e-195
6.45488961864e-195
6.45488961864e-195
6.45488961865e-195
6.45488961865e-195
6.45488961865e-195
6.45488961865e-195
6.45488961865e-195
6.45488961865e-195
6.45488961866e-195
6.45488961866e-195
6.45488961866e-195
6.45488961866e-195
6.45488961866e-195
6.45488961867e-195
6.45488961867e-195
6.4548896187e-195
6.45488962096e-195
6.45488979387e-195
6.45490282711e-195
6.45577911509e-195
6.51373514362e-195
3.4780234496e-73
9.72831045148e-15
9.71811937786e-05
0.033218843355
0.0725880274397
0.094413974194
0.104221453483
0.107968857698
0.109766882534
0.111103870727
0.112382050725
0.11366404282
0.114909081756
0.116134820031
0.117355951497
0.11852396403
0.119666452361
0.120724098366
0.121739857122
0.122678113438
0.123509929854
0.124274791983
0.124946729328
0.125489935863
0.125955504612
0.126314858942
0.126567847023
0.126720020039
6.4548896186e-195
6.45488961861e-195
6.45488961861e-195
6.45488961861e-195
6.45488961861e-195
6.45488961861e-195
6.45488961861e-195
6.45488961861e-195
6.45488961861e-195
6.45488961862e-195
6.45488961862e-195
6.45488961862e-195
6.45488961862e-195
6.45488961862e-195
6.45488961862e-195
6.45488961863e-195
6.45488961863e-195
6.45488961863e-195
6.45488961863e-195
6.45488961863e-195
6.45488961863e-195
6.45488961863e-195
6.45488961864e-195
6.45488961864e-195
6.45488961864e-195
6.45488961864e-195
6.45488961864e-195
6.45488961865e-195
6.45488961865e-195
6.45488961865e-195
6.45488961865e-195
6.45488961865e-195
6.45488961866e-195
6.45488961866e-195
6.45488961866e-195
6.45488961866e-195
6.45488961869e-195
6.45488962076e-195
6.45488977847e-195
6.45490168246e-195
6.45570977255e-195
6.51026911657e-195
3.11659910256e-73
3.69052201079e-15
7.64397281442e-05
0.0304289071597
0.0681314941118
0.0902274750115
0.0995473004351
0.103431841862
0.105253420368
0.106628538228
0.107979503073
0.109289536046
0.110602243758
0.111871991408
0.113108649885
0.114329096654
0.115482529298
0.116591331638