/*--------------------------------*- C++ -*----------------------------------*\
| =========                 |                                                 |
| \\      /  F ield         | foam-extend: Open Source CFD                    |
|  \\    /   O peration     | Version:     4.1                                |
|   \\  /    A nd           | Web:         http://www.foam-extend.org         |
|    \\/     M anipulation  |                                                 |
\*---------------------------------------------------------------------------*/
FoamFile
{
    version     2.0;
    format      ascii;
    class       volScalarField;
    location    "0.0001";
    object      p;
}
// * * * * * * * * * * * * * * * * * * * * * * * * * * * * * * * * * * * * * //

dimensions      [1 -1 -2 0 0 0 0];

internalField   nonuniform List<scalar> 
8400
(
66.7281849593
66.7281849594
66.7281849595
66.7281849595
66.7281849596
66.7281849596
66.7281849597
66.7281849598
66.7281849598
66.7281849599
66.7281849599
66.72818496
66.72818496
66.7281849601
66.7281849601
66.7281849602
66.7281849602
66.7281849603
66.7281849603
66.7281849604
66.7281849604
66.7281849605
66.7281849605
66.7281849606
66.7281849606
66.7281849607
66.7281849607
66.7281849608
66.7281849608
66.7281849609
66.7281849609
66.728184961
66.728184961
66.7281849611
66.7281849611
66.7281849612
66.7281849612
66.7281849623
66.7281850428
66.7281914995
66.7286560129
66.7637403992
67.341068682
768.932558096
4256.63108213
22339.4108878
64732.9125352
139228.692375
220249.27132
269086.22498
283672.104903
285755.995901
285685.477574
285416.706134
285106.676486
284811.682051
284549.521338
284379.662682
284250.919395
284142.018662
284017.692167
283931.997747
283863.560565
283815.122481
283788.936193
283752.770657
283774.220942
283792.943403
283823.020486
284982.652103
66.7281849531
66.7281849531
66.7281849531
66.7281849531
66.7281849532
66.7281849532
66.7281849532
66.7281849532
66.7281849533
66.7281849533
66.7281849533
66.7281849533
66.7281849533
66.7281849534
66.7281849534
66.7281849534
66.7281849534
66.7281849534
66.7281849535
66.7281849535
66.7281849535
66.7281849535
66.7281849535
66.7281849536
66.7281849536
66.7281849536
66.7281849536
66.7281849536
66.7281849537
66.7281849537
66.7281849537
66.7281849537
66.7281849537
66.7281849538
66.7281849538
66.7281849538
66.7281849539
66.7281849596
66.7281854294
66.7282227844
66.7312565971
66.8387507692
149.533047584
1755.81800493
10073.8738732
37463.5524289
95525.2666234
180463.936952
251917.717168
283422.203447
290133.043507
291040.463342
291304.85932
291488.53918
291643.190204
291812.523851
292029.588438
292241.52775
292463.11459
292613.254754
292706.401859
292774.83353
292834.129241
292903.085089
292960.613626
293080.249293
293222.774028
293368.09397
293477.227492
294289.868589
66.7281849514
66.7281849515
66.7281849515
66.7281849515
66.7281849515
66.7281849515
66.7281849515
66.7281849515
66.7281849515
66.7281849516
66.7281849516
66.7281849516
66.7281849516
66.7281849516
66.7281849516
66.7281849516
66.7281849516
66.7281849517
66.7281849517
66.7281849517
66.7281849517
66.7281849517
66.7281849517
66.7281849517
66.7281849517
66.7281849517
66.7281849518
66.7281849518
66.7281849518
66.7281849518
66.7281849518
66.7281849518
66.7281849518
66.7281849518
66.7281849519
66.7281849519
66.7281849521
66.7281849684
66.728186345
66.7282913911
66.7368351602
66.9555630726
316.050971584
2697.29653889
14916.2557151
48378.0882072
115346.566382
201767.00631
264486.780185
287317.510555
291154.759544
291640.158862
291832.010306
291972.428233
292074.858452
292208.888032
292417.932394
292683.23177
292878.093649
293008.386373
293057.999304
293076.262293
293098.175424
293143.722667
293185.409472
293288.128629
293411.332977
293535.282507
293616.514268
294252.423767
66.7281849508
66.7281849508
66.7281849508
66.7281849508
66.7281849508
66.7281849508
66.7281849508
66.7281849508
66.7281849508
66.7281849508
66.7281849509
66.7281849509
66.7281849509
66.7281849509
66.7281849509
66.7281849509
66.7281849509
66.7281849509
66.7281849509
66.7281849509
66.7281849509
66.7281849509
66.7281849509
66.728184951
66.728184951
66.728184951
66.728184951
66.728184951
66.728184951
66.728184951
66.728184951
66.728184951
66.728184951
66.728184951
66.728184951
66.7281849511
66.7281849514
66.7281849768
66.7281871133
66.7283502344
66.7416679219
67.0422444775
445.266939422
3141.89390542
17337.1721911
54224.0656047
124687.632211
210489.088548
268771.100101
287872.234815
290837.59788
291209.983448
291325.949351
291379.815009
291443.992707
291596.948299
291834.213671
292075.542678
292203.408961
292264.629762
292291.503527
292339.164791
292398.413804
292450.193865
292464.349001
292528.620527
292615.244119
292705.018617
292755.707018
293322.538971
66.7281849504
66.7281849504
66.7281849504
66.7281849504
66.7281849504
66.7281849504
66.7281849504
66.7281849504
66.7281849504
66.7281849504
66.7281849505
66.7281849505
66.7281849505
66.7281849505
66.7281849505
66.7281849505
66.7281849505
66.7281849505
66.7281849505
66.7281849505
66.7281849505
66.7281849505
66.7281849505
66.7281849505
66.7281849505
66.7281849506
66.7281849506
66.7281849506
66.7281849506
66.7281849506
66.7281849506
66.7281849506
66.7281849506
66.7281849506
66.7281849506
66.7281849506
66.728184951
66.7281849806
66.7281874728
66.7283779944
66.7439780006
67.0801575802
500.945603713
3315.1442427
18221.9422912
56187.9440612
127891.87191
213782.847407
269663.93186
287259.723631
289912.671162
290245.047688
290369.852216
290400.461409
290437.837962
290560.24659
290786.086257
290988.742917
291120.960357
291153.194174
291160.525048
291192.945021
291233.87661
291259.663645
291254.060863
291312.901143
291420.862105
291546.299812
291624.015214
292195.943243
66.7281849502
66.7281849502
66.7281849502
66.7281849502
66.7281849502
66.7281849502
66.7281849502
66.7281849502
66.7281849502
66.7281849502
66.7281849502
66.7281849502
66.7281849502
66.7281849502
66.7281849502
66.7281849502
66.7281849502
66.7281849502
66.7281849503
66.7281849503
66.7281849503
66.7281849503
66.7281849503
66.7281849503
66.7281849503
66.7281849503
66.7281849503
66.7281849503
66.7281849503
66.7281849503
66.7281849503
66.7281849503
66.7281849503
66.7281849503
66.7281849503
66.7281849503
66.7281849507
66.7281849807
66.7281875077
66.7283803098
66.7441327134
67.0837347309
508.236039281
3331.47974992
18321.7053882
56319.3047662
128377.126341
213147.157767
268788.967226
286080.708797
288561.970386
288902.270474
289051.667084
289101.279476
289120.709016
289200.124932
289381.191507
289547.578464
289659.589383
289668.66129
289652.973718
289675.306039
289734.815844
289755.604679
289780.650604
289810.898961
289883.473055
289980.555234
290055.023861
290640.062443
66.72818495
66.72818495
66.72818495
66.72818495
66.72818495
66.72818495
66.72818495
66.72818495
66.72818495
66.72818495
66.72818495
66.72818495
66.72818495
66.7281849501
66.7281849501
66.7281849501
66.7281849501
66.7281849501
66.7281849501
66.7281849501
66.7281849501
66.7281849501
66.7281849501
66.7281849501
66.7281849501
66.7281849501
66.7281849501
66.7281849501
66.7281849501
66.7281849501
66.7281849501
66.7281849501
66.7281849501
66.7281849501
66.7281849501
66.7281849502
66.7281849505
66.7281849786
66.7281873515
66.7283689595
66.7432968045
67.0705097461
488.200262533
3268.42821549
17961.4437166
55561.0605666
126444.600764
211641.600215
266930.931097
284431.297737
286926.718377
287226.392785
287383.001875
287445.103155
287455.672706
287497.04417
287611.814985
287719.531617
287806.48436
287825.630921
287842.706541
287891.64819
287962.392061
287973.516771
287966.144252
287947.203714
287972.058701
288047.074932
288135.980468
288756.547398
66.7281849499
66.7281849499
66.7281849499
66.7281849499
66.7281849499
66.7281849499
66.7281849499
66.7281849499
66.7281849499
66.7281849499
66.7281849499
66.7281849499
66.7281849499
66.7281849499
66.7281849499
66.7281849499
66.7281849499
66.7281849499
66.7281849499
66.7281849499
66.72818495
66.72818495
66.72818495
66.72818495
66.72818495
66.72818495
66.72818495
66.72818495
66.72818495
66.72818495
66.72818495
66.72818495
66.72818495
66.72818495
66.72818495
66.72818495
66.7281849503
66.7281849759
66.7281871374
66.7283532122
66.7419430387
67.0477391028
454.556784046
3156.97137997
17367.9927324
54033.7890192
124085.736715
208421.375667
264703.08144
282476.796507
284971.259566
285222.381316
285355.065377
285420.442703
285440.496363
285481.81207
285578.118059
285657.670991
285715.487797
285715.801487
285720.716727
285762.481122
285794.260883
285826.995135
285794.259181
285737.734488
285726.148009
285781.982716
285874.264717
286514.23191
66.7281849498
66.7281849498
66.7281849498
66.7281849498
66.7281849498
66.7281849498
66.7281849498
66.7281849498
66.7281849498
66.7281849498
66.7281849498
66.7281849498
66.7281849498
66.7281849498
66.7281849498
66.7281849498
66.7281849498
66.7281849498
66.7281849498
66.7281849499
66.7281849499
66.7281849499
66.7281849499
66.7281849499
66.7281849499
66.7281849499
66.7281849499
66.7281849499
66.7281849499
66.7281849499
66.7281849499
66.7281849499
66.7281849499
66.7281849499
66.7281849499
66.7281849499
66.7281849502
66.7281849726
66.7281868731
66.7283324256
66.7401828232
67.020154692
411.299922799
3026.56183764
16660.4487292
52323.6428526
120752.388793
205004.279486
261822.652185
280177.57548
282740.215217
282963.671792
283037.2229
283099.671821
283125.481699
283150.4146
283214.120598
283263.530474
283307.084115
283298.583133
283285.509231
283304.750487
283315.464059
283327.423142
283291.374422
283239.344912
283216.956363
283245.882513
283300.461781
283875.803522
66.7281849497
66.7281849497
66.7281849497
66.7281849497
66.7281849497
66.7281849497
66.7281849497
66.7281849497
66.7281849497
66.7281849497
66.7281849497
66.7281849497
66.7281849498
66.7281849498
66.7281849498
66.7281849498
66.7281849498
66.7281849498
66.7281849498
66.7281849498
66.7281849498
66.7281849498
66.7281849498
66.7281849498
66.7281849498
66.7281849498
66.7281849498
66.7281849498
66.7281849498
66.7281849498
66.7281849498
66.7281849498
66.7281849498
66.7281849498
66.7281849498
66.7281849498
66.7281849501
66.7281849693
66.7281865985
66.7283115868
66.7384502439
66.9913911023
365.345275537
2885.2741584
15839.6538667
50390.7024222
117544.596937
200689.780698
258449.224661
277552.673189
280265.846181
280478.369887
280516.556063
280534.956927
280521.869195
280529.010641
280570.698635
280599.664562
280614.185248
280583.4486
280541.281346
280497.814964
280516.851271
280522.515008
280493.39425
280444.257973
280399.872188
280376.935321
280372.208937
280865.012134
66.7281849497
66.7281849497
66.7281849497
66.7281849497
66.7281849497
66.7281849497
66.7281849497
66.7281849497
66.7281849497
66.7281849497
66.7281849497
66.7281849497
66.7281849497
66.7281849497
66.7281849497
66.7281849497
66.7281849497
66.7281849497
66.7281849497
66.7281849497
66.7281849497
66.7281849497
66.7281849497
66.7281849497
66.7281849497
66.7281849497
66.7281849497
66.7281849497
66.7281849497
66.7281849497
66.7281849497
66.7281849497
66.7281849497
66.7281849498
66.7281849498
66.7281849498
66.72818495
66.7281849666
66.7281863775
66.7282943041
66.7369757078
66.963397864
322.303352622
2739.23677931
14989.8639208
48296.2262441
113789.859897
196227.330906
254788.228662
274639.036648
277524.06349
277698.599505
277675.388598
277669.328521
277660.165771
277642.720403
277611.864082
277625.567575
277619.343512
277584.213639
277540.780455
277474.961293
277443.297319
277395.549333
277332.596671
277270.233921
277229.19357
277223.960431
277199.928196
277691.920289
66.7281849496
66.7281849496
66.7281849496
66.7281849496
66.7281849496
66.7281849496
66.7281849496
66.7281849496
66.7281849496
66.7281849496
66.7281849496
66.7281849496
66.7281849496
66.7281849496
66.7281849496
66.7281849496
66.7281849497
66.7281849497
66.7281849497
66.7281849497
66.7281849497
66.7281849497
66.7281849497
66.7281849497
66.7281849497
66.7281849497
66.7281849497
66.7281849497
66.7281849497
66.7281849497
66.7281849497
66.7281849497
66.7281849497
66.7281849497
66.7281849497
66.7281849497
66.7281849499
66.728184964
66.7281861649
66.7282785756
66.7356638719
66.9368840301
283.063576833
2583.2093377
14148.7340144
46150.0170887
109813.205469
192002.299302
250725.871303
271473.954933
274469.547989
274626.057369
274606.212859
274593.502538
274541.080333
274471.236677
274383.501309
274342.844545
274312.747322
274286.083644
274224.522493
274166.856852
274089.529783
273998.734412
273899.238526
273826.809792
273767.000221
273757.8819
273745.521393
274181.636618
66.7281849496
66.7281849496
66.7281849496
66.7281849496
66.7281849496
66.7281849496
66.7281849496
66.7281849496
66.7281849496
66.7281849496
66.7281849496
66.7281849496
66.7281849496
66.7281849496
66.7281849496
66.7281849496
66.7281849496
66.7281849496
66.7281849496
66.7281849496
66.7281849496
66.7281849496
66.7281849496
66.7281849496
66.7281849496
66.7281849496
66.7281849496
66.7281849496
66.7281849496
66.7281849496
66.7281849496
66.7281849496
66.7281849497
66.7281849497
66.7281849497
66.7281849497
66.7281849498
66.7281849616
66.7281859657
66.7282643371
66.7345202922
66.912280483
244.403287529
2432.19741995
13254.6590063
44039.9609691
105702.390272
186816.255866
246550.411902
268133.124992
271251.500428
271366.789079
271281.655952
271236.686252
271155.995417
271044.787719
270908.244467
270822.390792
270749.257184
270682.14521
270588.716768
270520.826598
270446.25613
270359.090587
270231.627277
270142.305238
270067.781658
270008.23404
269956.2743
270332.471049
66.7281849495
66.7281849495
66.7281849495
66.7281849495
66.7281849495
66.7281849495
66.7281849495
66.7281849495
66.7281849496
66.7281849496
66.7281849496
66.7281849496
66.7281849496
66.7281849496
66.7281849496
66.7281849496
66.7281849496
66.7281849496
66.7281849496
66.7281849496
66.7281849496
66.7281849496
66.7281849496
66.7281849496
66.7281849496
66.7281849496
66.7281849496
66.7281849496
66.7281849496
66.7281849496
66.7281849496
66.7281849496
66.7281849496
66.7281849496
66.7281849496
66.7281849496
66.7281849497
66.7281849596
66.728185791
66.7282510771
66.7334478004
66.8900052744
213.318082086
2259.19595613
12281.3789598
41992.9323779
101662.494108
181581.29446
242075.546547
264428.948767
267737.332496
267855.130803
267741.412148
267630.687388
267501.379927
267344.930334
267222.582426
267104.346036
266980.378757
266826.391747
266700.809426
266593.653665
266521.339443
266441.89209
266365.369778
266253.31719
266119.178808
265982.01829
265854.687208
266134.170265
66.7281849495
66.7281849495
66.7281849495
66.7281849495
66.7281849495
66.7281849495
66.7281849495
66.7281849495
66.7281849495
66.7281849495
66.7281849495
66.7281849495
66.7281849495
66.7281849495
66.7281849495
66.7281849495
66.7281849495
66.7281849495
66.7281849495
66.7281849495
66.7281849496
66.7281849496
66.7281849496
66.7281849496
66.7281849496
66.7281849496
66.7281849496
66.7281849496
66.7281849496
66.7281849496
66.7281849496
66.7281849496
66.7281849496
66.7281849496
66.7281849496
66.7281849496
66.7281849497
66.7281849581
66.7281856556
66.7282408633
66.7326999451
66.8726518356
188.462443224
2099.89420908
11411.975679
39878.6864665
97761.8909639
176427.373155
237437.151641
260523.600401
264019.165413
264092.488691
263895.781515
263723.962492
263571.981107
263422.84242
263291.162121
263143.899268
262947.584279
262763.259042
262578.654128
262443.637336
262343.054004
262277.941855
262174.802318
262027.679001
261851.833858
261676.322883
261495.06283
261757.204035
66.7281849495
66.7281849495
66.7281849495
66.7281849495
66.7281849495
66.7281849495
66.7281849495
66.7281849495
66.7281849495
66.7281849495
66.7281849495
66.7281849495
66.7281849495
66.7281849495
66.7281849495
66.7281849495
66.7281849495
66.7281849495
66.7281849495
66.7281849495
66.7281849495
66.7281849495
66.7281849495
66.7281849495
66.7281849495
66.7281849495
66.7281849495
66.7281849495
66.7281849495
66.7281849495
66.7281849495
66.7281849495
66.7281849496
66.7281849496
66.7281849496
66.7281849496
66.7281849497
66.7281849568
66.7281855398
66.7282318756
66.7319774123
66.8593260459
168.238008329
1923.31495485
10411.4272844
37916.280777
93786.3444276
171159.610922
232372.665843
256303.917503
260036.556157
260080.10537
259868.435042
259663.638805
259457.374499
259246.894083
259074.149344
258905.923082
258684.687535
258449.250984
258219.150989
258016.165723
257899.245235
257806.194226
257697.201939
257545.09793
257334.511648
257132.917564
256949.013693
257130.0264
66.7281849495
66.7281849495
66.7281849495
66.7281849495
66.7281849495
66.7281849495
66.7281849495
66.7281849495
66.7281849495
66.7281849495
66.7281849495
66.7281849495
66.7281849495
66.7281849495
66.7281849495
66.7281849495
66.7281849495
66.7281849495
66.7281849495
66.7281849495
66.7281849495
66.7281849495
66.7281849495
66.7281849495
66.7281849495
66.7281849495
66.7281849495
66.7281849495
66.7281849495
66.7281849495
66.7281849495
66.7281849495
66.7281849495
66.7281849495
66.7281849495
66.7281849495
66.7281849496
66.7281849557
66.7281854404
66.7282238743
66.7313252625
66.8478277072
149.418303745
1722.618159
9361.7488805
35964.1533626
89969.6811592
165660.543815
227503.568952
252079.066615
255865.012666
255815.766841
255576.926011
255352.184261
255097.597566
254865.721245
254651.433054
254415.757149
254172.464303
253905.563984
253628.128418
253418.625434
253258.188154
253130.984016
252960.176976
252769.343082
252548.295109
252338.570823
252155.046174
252293.303395
66.7281849494
66.7281849494
66.7281849494
66.7281849494
66.7281849494
66.7281849494
66.7281849495
66.7281849495
66.7281849495
66.7281849495
66.7281849495
66.7281849495
66.7281849495
66.7281849495
66.7281849495
66.7281849495
66.7281849495
66.7281849495
66.7281849495
66.7281849495
66.7281849495
66.7281849495
66.7281849495
66.7281849495
66.7281849495
66.7281849495
66.7281849495
66.7281849495
66.7281849495
66.7281849495
66.7281849495
66.7281849495
66.7281849495
66.7281849495
66.7281849495
66.7281849495
66.7281849496
66.7281849548
66.7281853639
66.7282172063
66.7307910364
66.8382640691
136.830126022
1505.10395873
8244.76286259
34204.9958477
86197.0408465
160555.913938
222145.208249
247569.293242
251490.958166
251395.973051
251110.727871
250845.85632
250564.772558
250289.022239
249982.906871
249708.341374
249422.682477
249106.978434
248831.67303
248588.108105
248373.322303
248212.260954
248030.71091
247806.839279
247559.86426
247326.662253
247105.931925
247203.986452
66.7281849494
66.7281849494
66.7281849494
66.7281849494
66.7281849494
66.7281849494
66.7281849494
66.7281849494
66.7281849494
66.7281849494
66.7281849494
66.7281849494
66.7281849494
66.7281849494
66.7281849494
66.7281849495
66.7281849495
66.7281849495
66.7281849495
66.7281849495
66.7281849495
66.7281849495
66.7281849495
66.7281849495
66.7281849495
66.7281849495
66.7281849495
66.7281849495
66.7281849495
66.7281849495
66.7281849495
66.7281849495
66.7281849495
66.7281849495
66.7281849495
66.7281849495
66.7281849496
66.7281849542
66.7281853117
66.7282127473
66.7303888052
66.8303704073
125.602250074
1343.50139333
7499.74618009
32441.1666348
82557.4306092
155404.035951
217086.465155
242806.675424
246863.942841
246792.30918
246464.149183
246100.698237
245771.45745
245462.621086
245134.797712
244820.822932
244471.355323
244142.832837
243827.448922
243527.905965
243298.370149
243084.106048
242865.238447
242599.592801
242346.267725
242097.163179
241867.91167
241874.777822
66.7281849494
66.7281849494
66.7281849494
66.7281849494
66.7281849494
66.7281849494
66.7281849494
66.7281849494
66.7281849494
66.7281849494
66.7281849494
66.7281849494
66.7281849494
66.7281849494
66.7281849494
66.7281849494
66.7281849494
66.7281849494
66.7281849494
66.7281849494
66.7281849494
66.7281849494
66.7281849495
66.7281849495
66.7281849495
66.7281849495
66.7281849495
66.7281849495
66.7281849495
66.7281849495
66.7281849495
66.7281849495
66.7281849495
66.7281849495
66.7281849495
66.7281849495
66.7281849495
66.7281849536
66.7281852666
66.7282088441
66.7300312378
66.8229972628
115.12057492
1234.17088846
6844.29262933
30837.0454269
79134.6844035
150327.446652
211748.148823
237942.78599
242125.603676
242006.546272
241639.808595
241225.459795
240819.83415
240406.797057
240049.888193
239717.624769
239364.086517
239020.315402
238644.612418
238309.771711
238011.772014
237726.414012
237482.725919
237220.698204
236938.003582
236652.537751
236358.431326
236299.982805
66.7281849494
66.7281849494
66.7281849494
66.7281849494
66.7281849494
66.7281849494
66.7281849494
66.7281849494
66.7281849494
66.7281849494
66.7281849494
66.7281849494
66.7281849494
66.7281849494
66.7281849494
66.7281849494
66.7281849494
66.7281849494
66.7281849494
66.7281849494
66.7281849494
66.7281849494
66.7281849494
66.7281849494
66.7281849494
66.7281849494
66.7281849494
66.7281849494
66.7281849494
66.7281849495
66.7281849495
66.7281849495
66.7281849495
66.7281849495
66.7281849495
66.7281849495
66.7281849495
66.7281849531
66.7281852304
66.7282059006
66.7296984472
66.8166851922
108.109595562
1156.97505503
6382.03375839
29394.9416208
75856.8547341
145508.796302
206220.855025
232798.000167
237163.768761
237000.397604
236561.438298
236095.141905
235645.82467
235194.645486
234804.843672
234421.485161
234063.056388
233664.308963
233270.509899
232894.219152
232531.464511
232224.409441
231926.654185
231604.076785
231306.155705
231005.498197
230709.765969
230579.547087
66.7281849494
66.7281849494
66.7281849494
66.7281849494
66.7281849494
66.7281849494
66.7281849494
66.7281849494
66.7281849494
66.7281849494
66.7281849494
66.7281849494
66.7281849494
66.7281849494
66.7281849494
66.7281849494
66.7281849494
66.7281849494
66.7281849494
66.7281849494
66.7281849494
66.7281849494
66.7281849494
66.7281849494
66.7281849494
66.7281849494
66.7281849494
66.7281849494
66.7281849494
66.7281849494
66.7281849494
66.7281849494
66.7281849494
66.7281849494
66.7281849495
66.7281849495
66.7281849495
66.7281849528
66.728185203
66.7282039987
66.7294825137
66.8108429993
97.0464309907
1096.55057792
5997.88097009
28003.3334458
72888.3719842
140518.02198
201052.437835
227758.578635
232065.909358
231825.811805
231339.873832
230848.728309
230323.57378
229842.108381
229375.981311
228965.888804
228542.396975
228130.167598
227681.561381
227274.31365
226892.390222
226511.883343
226180.834866
225847.257845
225506.220479
225155.697133
224861.313875
224696.204811
66.7281849494
66.7281849494
66.7281849494
66.7281849494
66.7281849494
66.7281849494
66.7281849494
66.7281849494
66.7281849494
66.7281849494
66.7281849494
66.7281849494
66.7281849494
66.7281849494
66.7281849494
66.7281849494
66.7281849494
66.7281849494
66.7281849494
66.7281849494
66.7281849494
66.7281849494
66.7281849494
66.7281849494
66.7281849494
66.7281849494
66.7281849494
66.7281849494
66.7281849494
66.7281849494
66.7281849494
66.7281849494
66.7281849494
66.7281849494
66.7281849494
66.7281849494
66.7281849495
66.7281849524
66.7281851793
66.7282022794
66.7293519989
66.805392274
92.8135650944
1043.78734134
5665.49096447
26730.3526612
70245.6589575
136118.384039
195779.988662
222435.339043
226819.605956
226504.450621
225955.783183
225424.13156
224854.322854
224298.214596
223800.505849
223316.593418
222867.640264
222395.630082
221952.008656
221515.627641
221071.60591
220664.035948
220279.979783
219894.856425
219547.981465
219211.590962
218886.608225
218644.310947
66.7281849494
66.7281849494
66.7281849494
66.7281849494
66.7281849494
66.7281849494
66.7281849494
66.7281849494
66.7281849494
66.7281849494
66.7281849494
66.7281849494
66.7281849494
66.7281849494
66.7281849494
66.7281849494
66.7281849494
66.7281849494
66.7281849494
66.7281849494
66.7281849494
66.7281849494
66.7281849494
66.7281849494
66.7281849494
66.7281849494
66.7281849494
66.7281849494
66.7281849494
66.7281849494
66.7281849494
66.7281849494
66.7281849494
66.7281849494
66.7281849494
66.7281849494
66.7281849495
66.7281849522
66.7281851591
66.7282007776
66.7292610191
66.8008447289
90.0286112844
1002.06915038
5406.69621889
25649.143298
67483.1076994
132000.583256
190501.171361
217147.168309
221421.071404
220997.482261
220406.181013
219796.279642
219202.837003
218610.88643
218048.560598
217539.271779
217030.133707
216546.408995
216042.999221
215567.801871
215104.231151
214645.964911
214227.87188
213834.488831
213441.339905
213086.116447
212729.370343
212409.421006
66.7281849494
66.7281849494
66.7281849494
66.7281849494
66.7281849494
66.7281849494
66.7281849494
66.7281849494
66.7281849494
66.7281849494
66.7281849494
66.7281849494
66.7281849494
66.7281849494
66.7281849494
66.7281849494
66.7281849494
66.7281849494
66.7281849494
66.7281849494
66.7281849494
66.7281849494
66.7281849494
66.7281849494
66.7281849494
66.7281849494
66.7281849494
66.7281849494
66.7281849494
66.7281849494
66.7281849494
66.7281849494
66.7281849494
66.7281849494
66.7281849494
66.7281849494
66.7281849495
66.728184952
66.7281851448
66.7281996867
66.7291894548
66.7968368152
84.9660915499
970.255164591
5182.5121153
24660.1417572
65233.6310422
127732.719401
185563.879033
211801.614252
215919.231408
215406.075816
214715.978041
214060.199093
213390.789333
212772.146934
212171.431872
211602.875854
211066.258765
210514.941889
209995.619099
209460.827841
208974.890406
208511.755951
208054.568757
207628.990326
207212.715163
206816.000424
206409.849426
206035.13379
66.7281849493
66.7281849493
66.7281849493
66.7281849493
66.7281849493
66.7281849494
66.7281849494
66.7281849494
66.7281849494
66.7281849494
66.7281849494
66.7281849494
66.7281849494
66.7281849494
66.7281849494
66.7281849494
66.7281849494
66.7281849494
66.7281849494
66.7281849494
66.7281849494
66.7281849494
66.7281849494
66.7281849494
66.7281849494
66.7281849494
66.7281849494
66.7281849494
66.7281849494
66.7281849494
66.7281849494
66.7281849494
66.7281849494
66.7281849494
66.7281849494
66.7281849494
66.7281849495
66.7281849519
66.7281851326
66.7281986952
66.7291226236
66.7930068623
81.7025660275
940.235896624
4967.52469218
23778.0410954
62949.6186401
124214.596514
180688.028064
206338.361605
210243.318389
209658.520734
208923.516756
208183.281201
207485.957364
206813.727962
206173.793559
205585.552929
204990.64302
204419.321997
203829.74178
203275.859072
202724.469237
202227.443572
201759.327894
201294.010725
200849.219378
200406.570294
199976.142913
199498.124134
66.7281849493
66.7281849493
66.7281849493
66.7281849493
66.7281849493
66.7281849493
66.7281849493
66.7281849493
66.7281849493
66.7281849494
66.7281849494
66.7281849494
66.7281849494
66.7281849494
66.7281849494
66.7281849494
66.7281849494
66.7281849494
66.7281849494
66.7281849494
66.7281849494
66.7281849494
66.7281849494
66.7281849494
66.7281849494
66.7281849494
66.7281849494
66.7281849494
66.7281849494
66.7281849494
66.7281849494
66.7281849494
66.7281849494
66.7281849494
66.7281849494
66.7281849494
66.7281849494
66.7281849518
66.7281851272
66.7281982481
66.7290923716
66.7910157762
79.3781238024
919.094732663
4826.00656877
23027.8444364
61183.040763
120819.731058
175651.503037
200821.373285
204434.219611
203746.870163
202980.369987
202214.463175
201463.378948
200756.541321
200077.434505
199423.794642
198801.919854
198163.517384
197556.962826
196945.453582
196383.528285
195832.908814
195325.821258
194819.90807
194355.110079
193892.666609
193431.814515
192881.153152
66.7281849493
66.7281849493
66.7281849493
66.7281849493
66.7281849493
66.7281849493
66.7281849493
66.7281849493
66.7281849493
66.7281849493
66.7281849493
66.7281849493
66.7281849494
66.7281849494
66.7281849494
66.7281849494
66.7281849494
66.7281849494
66.7281849494
66.7281849494
66.7281849494
66.7281849494
66.7281849494
66.7281849494
66.7281849494
66.7281849494
66.7281849494
66.7281849494
66.7281849494
66.7281849494
66.7281849494
66.7281849494
66.7281849494
66.7281849494
66.7281849494
66.7281849494
66.7281849494
66.7281849518
66.7281851256
66.7281979881
66.7290653348
66.7890394119
77.5374975699
903.67798586
4716.4735306
22460.4826103
59712.4204753
117549.671186
170972.135346
195317.967678
198627.595173
197808.909639
196946.139651
196120.626634
195343.252662
194580.095073
193841.627466
193150.072412
192459.674938
191787.110262
191154.286163
190518.114262
189923.632363
189339.41052
188804.95358
188288.055353
187760.765526
187265.348917
186777.369714
186179.416675
66.7281849493
66.7281849493
66.7281849493
66.7281849493
66.7281849493
66.7281849493
66.7281849493
66.7281849493
66.7281849493
66.7281849493
66.7281849493
66.7281849493
66.7281849493
66.7281849493
66.7281849494
66.7281849494
66.7281849494
66.7281849494
66.7281849494
66.7281849494
66.7281849494
66.7281849494
66.7281849494
66.7281849494
66.7281849494
66.7281849494
66.7281849494
66.7281849494
66.7281849494
66.7281849494
66.7281849494
66.7281849494
66.7281849494
66.7281849494
66.7281849494
66.7281849494
66.7281849494
66.7281849518
66.7281851276
66.7281980203
66.7290605089
66.7883084514
75.6932140612
890.139796064
4638.68170246
21904.2776268
58335.1833942
114789.704797
166629.795922
189690.637709
192645.23478
191729.46517
190830.297627
189969.415832
189122.249527
188302.714722
187527.637131
186770.258526
186039.802827
185356.079039
184674.85695
184011.53682
183384.31884
182781.841292
182185.655301
181628.372662
181072.966715
180558.552053
180044.596347
179375.428451
66.7281849493
66.7281849493
66.7281849493
66.7281849493
66.7281849493
66.7281849493
66.7281849493
66.7281849493
66.7281849493
66.7281849493
66.7281849493
66.7281849493
66.7281849493
66.7281849493
66.7281849493
66.7281849493
66.7281849494
66.7281849494
66.7281849494
66.7281849494
66.7281849494
66.7281849494
66.7281849494
66.7281849494
66.7281849494
66.7281849494
66.7281849494
66.7281849494
66.7281849494
66.7281849494
66.7281849494
66.7281849494
66.7281849494
66.7281849494
66.7281849494
66.7281849494
66.7281849494
66.7281849519
66.7281851342
66.728198422
66.7290814153
66.7891010261
76.5569807247
888.055586637
4602.17601076
21571.4080411
57315.5781798
112306.079669
162192.073634
184159.744839
186607.770463
185566.627549
184589.638012
183676.390905
182797.977193
181969.84174
181146.245805
180337.854327
179557.998643
178827.959038
178118.356647
177452.321741
176774.153267
176127.044771