/*--------------------------------*- C++ -*----------------------------------*\
| =========                 |                                                 |
| \\      /  F ield         | foam-extend: Open Source CFD                    |
|  \\    /   O peration     | Version:     4.1                                |
|   \\  /    A nd           | Web:         http://www.foam-extend.org         |
|    \\/     M anipulation  |                                                 |
\*---------------------------------------------------------------------------*/
FoamFile
{
    version     2.0;
    format      ascii;
    class       volScalarField;
    location    "0.0001";
    object      rho;
}
// * * * * * * * * * * * * * * * * * * * * * * * * * * * * * * * * * * * * * //

dimensions      [1 -3 0 0 0 0 0];

internalField   nonuniform List<scalar> 
8400
(
0.00101999409783
0.00101999409783
0.00101999409783
0.00101999409783
0.00101999409783
0.00101999409783
0.00101999409783
0.00101999409784
0.00101999409784
0.00101999409784
0.00101999409784
0.00101999409784
0.00101999409784
0.00101999409784
0.00101999409784
0.00101999409784
0.00101999409784
0.00101999409784
0.00101999409784
0.00101999409784
0.00101999409785
0.00101999409785
0.00101999409785
0.00101999409785
0.00101999409785
0.00101999409785
0.00101999409785
0.00101999409785
0.00101999409785
0.00101999409785
0.00101999409785
0.00101999409785
0.00101999409785
0.00101999409785
0.00101999409785
0.00101999409786
0.00101999409786
0.00101999409787
0.00101999409933
0.00101999421426
0.00102000235665
0.00102060208264
0.00103001122014
0.00112078637558
0.00154682969564
0.00275161532899
0.0052048890167
0.00890414507915
0.0125416483099
0.0145566602613
0.0150936938628
0.0151280970141
0.0150835198723
0.0150296131672
0.0149740169448
0.0149190149996
0.0148661307489
0.0148153575868
0.0147662162574
0.0147188987415
0.0146736559269
0.014630462055
0.0145899578602
0.0145533413853
0.01452149105
0.014495175268
0.0144746039079
0.0144593535988
0.0144500032947
0.014492573912
0.00101999409774
0.00101999409774
0.00101999409774
0.00101999409774
0.00101999409774
0.00101999409774
0.00101999409774
0.00101999409774
0.00101999409774
0.00101999409774
0.00101999409774
0.00101999409774
0.00101999409774
0.00101999409774
0.00101999409774
0.00101999409774
0.00101999409774
0.00101999409775
0.00101999409775
0.00101999409775
0.00101999409775
0.00101999409775
0.00101999409775
0.00101999409775
0.00101999409775
0.00101999409775
0.00101999409775
0.00101999409775
0.00101999409775
0.00101999409775
0.00101999409775
0.00101999409775
0.00101999409775
0.00101999409775
0.00101999409775
0.00101999409775
0.00101999409775
0.00101999409786
0.0010199941066
0.00101999479633
0.00102005026184
0.00102180269216
0.00104822810215
0.00124296744988
0.00195343894951
0.00366343064022
0.00676687501905
0.0107229974614
0.0137955483637
0.0150439491747
0.015271299656
0.0152725087193
0.0152479478934
0.0152193784841
0.0151893872505
0.0151593709738
0.0151296388606
0.0150994644876
0.0150676911452
0.0150338516325
0.0149992585387
0.0149654928822
0.0149333940888
0.0149044634424
0.0148804454695
0.0148618959953
0.014848466837
0.014839029342
0.0148323496962
0.0148583049463
0.00101999409772
0.00101999409772
0.00101999409772
0.00101999409772
0.00101999409772
0.00101999409772
0.00101999409772
0.00101999409772
0.00101999409772
0.00101999409772
0.00101999409772
0.00101999409772
0.00101999409772
0.00101999409772
0.00101999409772
0.00101999409772
0.00101999409772
0.00101999409772
0.00101999409772
0.00101999409772
0.00101999409772
0.00101999409772
0.00101999409772
0.00101999409772
0.00101999409772
0.00101999409772
0.00101999409772
0.00101999409772
0.00101999409772
0.00101999409772
0.00101999409772
0.00101999409772
0.00101999409772
0.00101999409772
0.00101999409772
0.00101999409772
0.00101999409773
0.00101999409803
0.0010199941233
0.00101999604459
0.00102015209491
0.00102384822987
0.00107073838281
0.00135183134717
0.00225731408823
0.0042899308463
0.00772404873968
0.0116594173597
0.0142906255272
0.0151678167798
0.0152892444369
0.0152783137935
0.0152522826366
0.015223108102
0.0151926099594
0.0151626767117
0.01513420373
0.0151060714621
0.0150760992384
0.0150431690746
0.015008766634
0.0149751121893
0.0149435746536
0.0149157790984
0.0148931728492
0.0148757520778
0.0148626869915
0.0148526557804
0.0148445566918
0.0148628036096
0.00101999409771
0.00101999409771
0.00101999409771
0.00101999409771
0.00101999409771
0.00101999409771
0.00101999409771
0.00101999409771
0.00101999409771
0.00101999409771
0.00101999409771
0.00101999409771
0.00101999409771
0.00101999409771
0.00101999409771
0.00101999409771
0.00101999409771
0.00101999409771
0.00101999409771
0.00101999409771
0.00101999409771
0.00101999409771
0.00101999409771
0.00101999409771
0.00101999409771
0.00101999409771
0.00101999409771
0.00101999409771
0.00101999409771
0.00101999409771
0.00101999409771
0.00101999409771
0.00101999409771
0.00101999409771
0.00101999409771
0.00101999409771
0.00101999409772
0.00101999409819
0.00101999413755
0.00101999712476
0.00102023984898
0.00102529763665
0.0010845320081
0.00141115022819
0.00241809956508
0.00460976638234
0.00818350305996
0.0120694554376
0.0144825926104
0.0152099881794
0.015294752155
0.0152784126971
0.0152498156193
0.0152179315407
0.0151860603056
0.0151563832258
0.0151280118558
0.0150984521002
0.0150661982801
0.0150320439745
0.0149984791932
0.01496682524
0.0149367677317
0.0149090914756
0.0148856501835
0.0148672840014
0.0148535685088
0.0148429146586
0.0148338102544
0.0148490550166
0.0010199940977
0.0010199940977
0.0010199940977
0.0010199940977
0.0010199940977
0.0010199940977
0.0010199940977
0.0010199940977
0.0010199940977
0.0010199940977
0.0010199940977
0.0010199940977
0.0010199940977
0.0010199940977
0.0010199940977
0.0010199940977
0.0010199940977
0.0010199940977
0.0010199940977
0.0010199940977
0.0010199940977
0.0010199940977
0.0010199940977
0.0010199940977
0.0010199940977
0.0010199940977
0.0010199940977
0.0010199940977
0.0010199940977
0.0010199940977
0.0010199940977
0.0010199940977
0.0010199940977
0.0010199940977
0.0010199940977
0.00101999409771
0.00101999409771
0.00101999409826
0.00101999414434
0.00101999764332
0.00102028243501
0.00102593464369
0.00109019580499
0.00143493312598
0.00248271983719
0.00473806525423
0.00836641089646
0.0122294527277
0.0145590077956
0.015231275376
0.015299566677
0.0152806224091
0.0152514966392
0.0152185301763
0.0151851890385
0.0151540243878
0.0151247274883
0.0150944940476
0.0150611156593
0.0150259247798
0.0149916204837
0.0149589760492
0.0149275578695
0.0148984828141
0.0148742573751
0.0148563103582
0.0148440913586
0.0148351485462
0.0148270934739
0.0148422189477
0.0010199940977
0.0010199940977
0.0010199940977
0.0010199940977
0.0010199940977
0.0010199940977
0.0010199940977
0.0010199940977
0.0010199940977
0.0010199940977
0.0010199940977
0.0010199940977
0.0010199940977
0.0010199940977
0.0010199940977
0.0010199940977
0.0010199940977
0.0010199940977
0.0010199940977
0.0010199940977
0.0010199940977
0.0010199940977
0.0010199940977
0.0010199940977
0.0010199940977
0.0010199940977
0.0010199940977
0.0010199940977
0.0010199940977
0.0010199940977
0.0010199940977
0.0010199940977
0.0010199940977
0.0010199940977
0.0010199940977
0.0010199940977
0.00101999409771
0.00101999409827
0.00101999414499
0.00101999768685
0.00102028452979
0.00102600336911
0.00109096500206
0.00143857178797
0.00249368081123
0.00476204624138
0.00840441264749
0.0122681332589
0.0145844173855
0.0152420630876
0.0153046392378
0.0152845866369
0.0152561674214
0.0152230683961
0.0151880531199
0.0151542022091
0.0151224891991
0.0150907043882
0.0150561558057
0.0150196065543
0.0149839435016
0.0149507294241
0.0149200087283
0.0148915873414
0.0148663142625
0.0148462238807
0.0148320697852
0.0148222584032
0.0148148387777
0.0148316378121
0.0010199940977
0.0010199940977
0.0010199940977
0.0010199940977
0.0010199940977
0.0010199940977
0.0010199940977
0.0010199940977
0.0010199940977
0.0010199940977
0.0010199940977
0.0010199940977
0.0010199940977
0.0010199940977
0.0010199940977
0.0010199940977
0.0010199940977
0.0010199940977
0.0010199940977
0.0010199940977
0.0010199940977
0.0010199940977
0.0010199940977
0.0010199940977
0.0010199940977
0.0010199940977
0.0010199940977
0.0010199940977
0.0010199940977
0.0010199940977
0.0010199940977
0.0010199940977
0.0010199940977
0.0010199940977
0.0010199940977
0.0010199940977
0.0010199940977
0.00101999409823
0.00101999414228
0.00101999749841
0.00102027004915
0.00102579102806
0.0010891871254
0.00143177028842
0.00247663918855
0.00473147478955
0.00836586570947
0.0122457516571
0.0145842456338
0.0152499964863
0.0153127818449
0.0152910523542
0.0152611834607
0.0152266159821
0.0151893623569
0.0151526049131
0.0151177579225
0.0150832974573
0.0150472672162
0.015010648359
0.0149757927046
0.0149432851109
0.0149123494694
0.0148825284631
0.0148549410449
0.0148324117334
0.014816592317
0.0148063169924
0.0147994683039
0.0148172944281
0.00101999409769
0.00101999409769
0.00101999409769
0.00101999409769
0.00101999409769
0.00101999409769
0.00101999409769
0.00101999409769
0.00101999409769
0.00101999409769
0.0010199940977
0.0010199940977
0.0010199940977
0.0010199940977
0.0010199940977
0.0010199940977
0.0010199940977
0.0010199940977
0.0010199940977
0.0010199940977
0.0010199940977
0.0010199940977
0.0010199940977
0.0010199940977
0.0010199940977
0.0010199940977
0.0010199940977
0.0010199940977
0.0010199940977
0.0010199940977
0.0010199940977
0.0010199940977
0.0010199940977
0.0010199940977
0.0010199940977
0.0010199940977
0.0010199940977
0.00101999409818
0.00101999413844
0.00101999720532
0.00102024675884
0.00102542731879
0.00108600267742
0.00141903416684
0.00244370624811
0.00467012800386
0.00828746567211
0.0121882219287
0.0145713548735
0.0152588303907
0.015320552223
0.0152953623767
0.015262954867
0.0152270149058
0.0151886018208
0.0151504312741
0.0151138097656
0.0150774956611
0.0150396230392
0.0150011849706
0.0149647363944
0.0149310905117
0.0148993559371
0.0148685413446
0.0148394004367
0.0148149638727
0.0147975532123
0.0147866611247
0.0147801594544
0.0147990088173
0.00101999409769
0.00101999409769
0.00101999409769
0.00101999409769
0.00101999409769
0.00101999409769
0.00101999409769
0.00101999409769
0.00101999409769
0.00101999409769
0.00101999409769
0.00101999409769
0.00101999409769
0.00101999409769
0.00101999409769
0.00101999409769
0.00101999409769
0.00101999409769
0.00101999409769
0.00101999409769
0.00101999409769
0.00101999409769
0.00101999409769
0.00101999409769
0.00101999409769
0.00101999409769
0.00101999409769
0.00101999409769
0.00101999409769
0.00101999409769
0.00101999409769
0.00101999409769
0.00101999409769
0.00101999409769
0.00101999409769
0.0010199940977
0.0010199940977
0.00101999409812
0.00101999413348
0.00101999682086
0.00102021563491
0.00102497451331
0.00108206139814
0.00140327491395
0.00240249022884
0.00459189170194
0.00818199142703
0.012107947999
0.014549028877
0.0152671604977
0.015330818538
0.0153007015308
0.0152648026956
0.015227021868
0.0151872442023
0.0151470090914
0.0151075565813
0.0150684703033
0.0150285048555
0.014988400034
0.0149501239462
0.0149147882434
0.0148818093613
0.0148499723895
0.0148202358809
0.0147951676317
0.0147764415974
0.0147638378593
0.0147558440692
0.0147731072519
0.00101999409769
0.00101999409769
0.00101999409769
0.00101999409769
0.00101999409769
0.00101999409769
0.00101999409769
0.00101999409769
0.00101999409769
0.00101999409769
0.00101999409769
0.00101999409769
0.00101999409769
0.00101999409769
0.00101999409769
0.00101999409769
0.00101999409769
0.00101999409769
0.00101999409769
0.00101999409769
0.00101999409769
0.00101999409769
0.00101999409769
0.00101999409769
0.00101999409769
0.00101999409769
0.00101999409769
0.00101999409769
0.00101999409769
0.00101999409769
0.00101999409769
0.00101999409769
0.00101999409769
0.00101999409769
0.00101999409769
0.00101999409769
0.0010199940977
0.00101999409806
0.00101999412843
0.00101999643907
0.00102018307334
0.00102449964792
0.00107784976336
0.00138605694545
0.00235700190597
0.00450300691056
0.00806185666458
0.0120136914076
0.0145196604192
0.0152700336101
0.015337353016
0.0153066964633
0.0152687628964
0.0152278565981
0.0151845023631
0.0151410534201
0.0150990576489
0.0150578519935
0.0150157167442
0.0149729181726
0.0149318132916
0.0148940054703
0.0148590597432
0.0148265132272
0.0147968273657
0.014771165609
0.0147507300699
0.0147356030333
0.0147251489713
0.0147398188242
0.00101999409769
0.00101999409769
0.00101999409769
0.00101999409769
0.00101999409769
0.00101999409769
0.00101999409769
0.00101999409769
0.00101999409769
0.00101999409769
0.00101999409769
0.00101999409769
0.00101999409769
0.00101999409769
0.00101999409769
0.00101999409769
0.00101999409769
0.00101999409769
0.00101999409769
0.00101999409769
0.00101999409769
0.00101999409769
0.00101999409769
0.00101999409769
0.00101999409769
0.00101999409769
0.00101999409769
0.00101999409769
0.00101999409769
0.00101999409769
0.00101999409769
0.00101999409769
0.00101999409769
0.00101999409769
0.00101999409769
0.00101999409769
0.0010199940977
0.00101999409801
0.00101999412429
0.00101999611592
0.0010201569342
0.00102403604761
0.00107337745013
0.00136739177886
0.00230799553087
0.00440898507997
0.00793405436882
0.0119107945886
0.0144838877306
0.0152723792035
0.0153447920125
0.0153104333113
0.0152677526021
0.0152230400503
0.015177120702
0.0151314590035
0.0150869472754
0.015042947359
0.0149986510645
0.0149542339435
0.0149110552457
0.014870400619
0.0148322517581
0.01479695378
0.0147656869175
0.0147395092609
0.0147189946163
0.0147041686766
0.0146934878135
0.0147052992071
0.00101999409769
0.00101999409769
0.00101999409769
0.00101999409769
0.00101999409769
0.00101999409769
0.00101999409769
0.00101999409769
0.00101999409769
0.00101999409769
0.00101999409769
0.00101999409769
0.00101999409769
0.00101999409769
0.00101999409769
0.00101999409769
0.00101999409769
0.00101999409769
0.00101999409769
0.00101999409769
0.00101999409769
0.00101999409769
0.00101999409769
0.00101999409769
0.00101999409769
0.00101999409769
0.00101999409769
0.00101999409769
0.00101999409769
0.00101999409769
0.00101999409769
0.00101999409769
0.00101999409769
0.00101999409769
0.00101999409769
0.00101999409769
0.0010199940977
0.00101999409796
0.00101999412044
0.00101999582577
0.00102013304772
0.00102359403937
0.00106899673042
0.00134868457485
0.00225815683848
0.00431204602981
0.0077962027141
0.0117960193701
0.0144445940778
0.0152770433604
0.0153510428225
0.0153109439784
0.0152649285074
0.0152179117254
0.0151689688967
0.015119190717
0.0150700152282
0.0150218142351
0.0149747824308
0.0149294067275
0.0148855893062
0.0148428498316
0.0148016684423
0.0147634527402
0.0147299710492
0.0147030265046
0.0146827214081
0.0146672667434
0.0146553011143
0.0146663342737
0.00101999409769
0.00101999409769
0.00101999409769
0.00101999409769
0.00101999409769
0.00101999409769
0.00101999409769
0.00101999409769
0.00101999409769
0.00101999409769
0.00101999409769
0.00101999409769
0.00101999409769
0.00101999409769
0.00101999409769
0.00101999409769
0.00101999409769
0.00101999409769
0.00101999409769
0.00101999409769
0.00101999409769
0.00101999409769
0.00101999409769
0.00101999409769
0.00101999409769
0.00101999409769
0.00101999409769
0.00101999409769
0.00101999409769
0.00101999409769
0.00101999409769
0.00101999409769
0.00101999409769
0.00101999409769
0.00101999409769
0.00101999409769
0.00101999409769
0.00101999409792
0.0010199941169
0.00101999556895
0.00102011120055
0.00102317408036
0.00106466766609
0.00132979167673
0.00220685644221
0.00421082104384
0.00765329923622
0.0116742935626
0.0143991282459
0.0152776176216
0.0153572481345
0.0153136085803
0.0152626401098
0.0152111207907
0.0151583337324
0.0151044075242
0.0150507007216
0.0149981866741
0.0149473739098
0.0148987403154
0.0148523298048
0.0148078808243
0.0147657458836
0.0147267031405
0.0146920890896
0.0146632259638
0.0146400846682
0.0146221238471
0.0146086900468
0.0146182380274
0.00101999409769
0.00101999409769
0.00101999409769
0.00101999409769
0.00101999409769
0.00101999409769
0.00101999409769
0.00101999409769
0.00101999409769
0.00101999409769
0.00101999409769
0.00101999409769
0.00101999409769
0.00101999409769
0.00101999409769
0.00101999409769
0.00101999409769
0.00101999409769
0.00101999409769
0.00101999409769
0.00101999409769
0.00101999409769
0.00101999409769
0.00101999409769
0.00101999409769
0.00101999409769
0.00101999409769
0.00101999409769
0.00101999409769
0.00101999409769
0.00101999409769
0.00101999409769
0.00101999409769
0.00101999409769
0.00101999409769
0.00101999409769
0.00101999409769
0.00101999409788
0.00101999411367
0.00101999532756
0.00102009187394
0.00102279331718
0.00106045944017
0.0013110188394
0.00215638272509
0.00411084581781
0.00750963946868
0.011548311137
0.0143506471815
0.0152745578503
0.0153581065711
0.0153108154922
0.0152562886077
0.015200172788
0.015142982666
0.0150858014835
0.0150288897572
0.0149724803627
0.0149172666334
0.0148640217053
0.0148134561755
0.0147665793418
0.0147241900029
0.0146857728704
0.014650424978
0.0146187429433
0.0145918526722
0.0145700789214
0.0145536438686
0.0145605129452
0.00101999409769
0.00101999409769
0.00101999409769
0.00101999409769
0.00101999409769
0.00101999409769
0.00101999409769
0.00101999409769
0.00101999409769
0.00101999409769
0.00101999409769
0.00101999409769
0.00101999409769
0.00101999409769
0.00101999409769
0.00101999409769
0.00101999409769
0.00101999409769
0.00101999409769
0.00101999409769
0.00101999409769
0.00101999409769
0.00101999409769
0.00101999409769
0.00101999409769
0.00101999409769
0.00101999409769
0.00101999409769
0.00101999409769
0.00101999409769
0.00101999409769
0.00101999409769
0.00101999409769
0.00101999409769
0.00101999409769
0.00101999409769
0.00101999409769
0.00101999409785
0.0010199941112
0.00101999515239
0.00102007723392
0.00102246527233
0.00105674471188
0.00129326942776
0.0021084725777
0.00401411754514
0.00736449586579
0.0114164188002
0.014293945303
0.0152702711607
0.0153609114864
0.0153080401251
0.015246086721
0.0151833828743
0.015121800487
0.0150618097792
0.015002057858
0.01494215348
0.014882754824
0.0148247342401
0.0147701490333
0.0147211760533
0.0146776432755
0.0146374981862
0.0145998105748
0.0145654390258
0.0145357008916
0.0145115812918
0.0144935476128
0.0144981979768
0.00101999409769
0.00101999409769
0.00101999409769
0.00101999409769
0.00101999409769
0.00101999409769
0.00101999409769
0.00101999409769
0.00101999409769
0.00101999409769
0.00101999409769
0.00101999409769
0.00101999409769
0.00101999409769
0.00101999409769
0.00101999409769
0.00101999409769
0.00101999409769
0.00101999409769
0.00101999409769
0.00101999409769
0.00101999409769
0.00101999409769
0.00101999409769
0.00101999409769
0.00101999409769
0.00101999409769
0.00101999409769
0.00101999409769
0.00101999409769
0.00101999409769
0.00101999409769
0.00101999409769
0.00101999409769
0.00101999409769
0.00101999409769
0.00101999409769
0.00101999409783
0.00101999410902
0.00101999498944
0.0010200651207
0.00102219154691
0.00105343816408
0.00127567377204
0.0020600925134
0.00391824047689
0.00722098241051
0.0112852173948
0.0142366049113
0.0152639474814
0.0153591989003
0.0153004756713
0.0152333853156
0.0151661900898
0.0150993945649
0.0150337421567
0.0149689652644
0.014905014089
0.0148418598055
0.0147797297017
0.0147211281565
0.0146685160783
0.0146216814443
0.014579360875
0.0145405355152
0.0145052632531
0.0144743200656
0.014448320539
0.0144283309215
0.0144304636913
0.00101999409769
0.00101999409769
0.00101999409769
0.00101999409769
0.00101999409769
0.00101999409769
0.00101999409769
0.00101999409769
0.00101999409769
0.00101999409769
0.00101999409769
0.00101999409769
0.00101999409769
0.00101999409769
0.00101999409769
0.00101999409769
0.00101999409769
0.00101999409769
0.00101999409769
0.00101999409769
0.00101999409769
0.00101999409769
0.00101999409769
0.00101999409769
0.00101999409769
0.00101999409769
0.00101999409769
0.00101999409769
0.00101999409769
0.00101999409769
0.00101999409769
0.00101999409769
0.00101999409769
0.00101999409769
0.00101999409769
0.00101999409769
0.00101999409769
0.0010199940978
0.0010199941071
0.00101999484258
0.00102005353023
0.00102197559665
0.00105045048491
0.00125908635516
0.0020131974513
0.00382814947876
0.00708188761276
0.0111525383078
0.0141754576079
0.0152532542359
0.0153547941601
0.0152891637142
0.0152150691777
0.0151430046739
0.0150721564735
0.0150015994526
0.0149317653601
0.0148630424196
0.0147949376684
0.0147288772812
0.0146672544425
0.0146111467044
0.0145609116346
0.0145160128073
0.014474951828
0.0144369558985
0.0144033402922
0.0143758281984
0.0143548979802
0.0143543877697
0.00101999409769
0.00101999409769
0.00101999409769
0.00101999409769
0.00101999409769
0.00101999409769
0.00101999409769
0.00101999409769
0.00101999409769
0.00101999409769
0.00101999409769
0.00101999409769
0.00101999409769
0.00101999409769
0.00101999409769
0.00101999409769
0.00101999409769
0.00101999409769
0.00101999409769
0.00101999409769
0.00101999409769
0.00101999409769
0.00101999409769
0.00101999409769
0.00101999409769
0.00101999409769
0.00101999409769
0.00101999409769
0.00101999409769
0.00101999409769
0.00101999409769
0.00101999409769
0.00101999409769
0.00101999409769
0.00101999409769
0.00101999409769
0.00101999409769
0.00101999409779
0.00101999410555
0.00101999472109
0.0010200441509
0.00102180721345
0.00104791172331
0.00124426987373
0.00196914560828
0.00374303473723
0.00694902652908
0.0110226216914
0.0141100954524
0.0152380586029
0.0153445416983
0.0152731318131
0.0151931637473
0.0151155744067
0.0150398652071
0.014964146791
0.0148884449208
0.0148137570356
0.01474080868
0.0146710381855
0.0146059021857
0.014546657805
0.0144938250564
0.0144462320776
0.0144021432746
0.0143613588928
0.0143252599208
0.0142959039316
0.0142740467919
0.0142713041009
0.00101999409769
0.00101999409769
0.00101999409769
0.00101999409769
0.00101999409769
0.00101999409769
0.00101999409769
0.00101999409769
0.00101999409769
0.00101999409769
0.00101999409769
0.00101999409769
0.00101999409769
0.00101999409769
0.00101999409769
0.00101999409769
0.00101999409769
0.00101999409769
0.00101999409769
0.00101999409769
0.00101999409769
0.00101999409769
0.00101999409769
0.00101999409769
0.00101999409769
0.00101999409769
0.00101999409769
0.00101999409769
0.00101999409769
0.00101999409769
0.00101999409769
0.00101999409769
0.00101999409769
0.00101999409769
0.00101999409769
0.00101999409769
0.00101999409769
0.00101999409778
0.00101999410449
0.00101999463282
0.00102003711448
0.00102167429173
0.00104583766933
0.00123147322607
0.00193007048555
0.00366190092762
0.00681927400826
0.0108952412784
0.0140454671316
0.015220014533
0.0153302589659
0.0152533937643
0.0151678084429
0.0150830358233
0.0149999317732
0.014918435354
0.0148383131293
0.0147591499828
0.0146816023164
0.0146072994794
0.0145379823169
0.0144751684456
0.0144186025392
0.0143672400314
0.0143206195433
0.0142784503474
0.0142409625856
0.0142094629688
0.0141847813247
0.0141774128328
0.00101999409769
0.00101999409769
0.00101999409769
0.00101999409769
0.00101999409769
0.00101999409769
0.00101999409769
0.00101999409769
0.00101999409769
0.00101999409769
0.00101999409769
0.00101999409769
0.00101999409769
0.00101999409769
0.00101999409769
0.00101999409769
0.00101999409769
0.00101999409769
0.00101999409769
0.00101999409769
0.00101999409769
0.00101999409769
0.00101999409769
0.00101999409769
0.00101999409769
0.00101999409769
0.00101999409769
0.00101999409769
0.00101999409769
0.00101999409769
0.00101999409769
0.00101999409769
0.00101999409769
0.00101999409769
0.00101999409769
0.00101999409769
0.00101999409769
0.00101999409776
0.00101999410358
0.0010199945545
0.00102003043564
0.00102155564709
0.00104401613586
0.00121977145528
0.00189340986349
0.00358529815135
0.00669974309212
0.0107720880727
0.0139785317325
0.0151983649112
0.0153129210276
0.0152296167581
0.015137698651
0.0150461784747
0.0149554136312
0.0148663962809
0.014779874917
0.0146963061412
0.0146157635566
0.0145383084039
0.0144650605967
0.0143970685702
0.0143355480753
0.0142808252874
0.0142314010205
0.014186581179
0.0141467568767
0.0141126352847
0.0140852840032
0.0140742700092
0.00101999409769
0.00101999409769
0.00101999409769
0.00101999409769
0.00101999409769
0.00101999409769
0.00101999409769
0.00101999409769
0.00101999409769
0.00101999409769
0.00101999409769
0.00101999409769
0.00101999409769
0.00101999409769
0.00101999409769
0.00101999409769
0.00101999409769
0.00101999409769
0.00101999409769
0.00101999409769
0.00101999409769
0.00101999409769
0.00101999409769
0.00101999409769
0.00101999409769
0.00101999409769
0.00101999409769
0.00101999409769
0.00101999409769
0.00101999409769
0.00101999409769
0.00101999409769
0.00101999409769
0.00101999409769
0.00101999409769
0.00101999409769
0.00101999409769
0.00101999409776
0.00101999410284
0.00101999448569
0.00102002442016
0.00102145384928
0.0010424536584
0.00120955120182
0.00186114822478
0.00351478836552
0.00658628739916
0.0106561394233
0.0139139391375
0.0151769534009
0.015293867579
0.0152015400306
0.0151002444471
0.0150003576695
0.0149022382768
0.0148068241957
0.0147150139392
0.0146270404972
0.0145424000023
0.0144607029204
0.0143825631855
0.0143101659199
0.0142450369036
0.0141863590456
0.0141331566254
0.0140854809578
0.0140436942437
0.0140078813122
0.013978356186
0.0139629149362
0.00101999409769
0.00101999409769
0.00101999409769
0.00101999409769
0.00101999409769
0.00101999409769
0.00101999409769
0.00101999409769
0.00101999409769
0.00101999409769
0.00101999409769
0.00101999409769
0.00101999409769
0.00101999409769
0.00101999409769
0.00101999409769
0.00101999409769
0.00101999409769
0.00101999409769
0.00101999409769
0.00101999409769
0.00101999409769
0.00101999409769
0.00101999409769
0.00101999409769
0.00101999409769
0.00101999409769
0.00101999409769
0.00101999409769
0.00101999409769
0.00101999409769
0.00101999409769
0.00101999409769
0.00101999409769
0.00101999409769
0.00101999409769
0.00101999409769
0.00101999409775
0.00101999410234
0.00101999444076
0.00102001908049
0.00102136439285
0.0010410913444
0.00120048748497
0.0018322040393
0.00345191403223
0.00648547823246
0.0105505239189
0.0138529483288
0.0151503546884
0.0152657060951
0.0151639659459
0.0150557203076
0.0149493301351
0.0148441953273
0.0147418283635
0.0146437920376
0.0145503535123
0.0144606844186
0.01437400508
0.0142914864825
0.0142151216108
0.0141455058392
0.0140828530769
0.0140266416369
0.0139757793406
0.0139306510482
0.0138928116697
0.0138624603062
0.0138443941977
0.00101999409769
0.00101999409769
0.00101999409769
0.00101999409769
0.00101999409769
0.00101999409769
0.00101999409769
0.00101999409769
0.00101999409769
0.00101999409769
0.00101999409769
0.00101999409769
0.00101999409769
0.00101999409769
0.00101999409769
0.00101999409769
0.00101999409769
0.00101999409769
0.00101999409769
0.00101999409769
0.00101999409769
0.00101999409769
0.00101999409769
0.00101999409769
0.00101999409769
0.00101999409769
0.00101999409769
0.00101999409769
0.00101999409769
0.00101999409769
0.00101999409769
0.00101999409769
0.00101999409769
0.00101999409769
0.00101999409769
0.00101999409769
0.00101999409769
0.00101999409774
0.00101999410193
0.00101999440988
0.00102001631075
0.0010212879175
0.0010399413032
0.00119287214228
0.00180759714266
0.00339767417608
0.00639723920506
0.0104545271597
0.0137915093717
0.0151188201199
0.0152331148327
0.0151226455311
0.0150056490712
0.0148914361579
0.0147789813371
0.0146694591518
0.0145645618616
0.0144647903371
0.0143692204527
0.0142779214218
0.0141917358153
0.0141114286207
0.0140376795891
0.0139704357049
0.0139101286122
0.0138569659529
0.0138102947859
0.0137703047933
0.0137372170771
0.0137145878494
0.00101999409769
0.00101999409769
0.00101999409769
0.00101999409769
0.00101999409769
0.00101999409769
0.00101999409769
0.00101999409769
0.00101999409769
0.00101999409769
0.00101999409769
0.00101999409769
0.00101999409769
0.00101999409769
0.00101999409769
0.00101999409769
0.00101999409769
0.00101999409769
0.00101999409769
0.00101999409769
0.00101999409769
0.00101999409769
0.00101999409769
0.00101999409769
0.00101999409769
0.00101999409769
0.00101999409769
0.00101999409769
0.00101999409769
0.00101999409769
0.00101999409769
0.00101999409769
0.00101999409769
0.00101999409769
0.00101999409769
0.00101999409769
0.00101999409769
0.00101999409774
0.00101999410158
0.00101999438659
0.00102001412903
0.00102122548888
0.00103901100541
0.00118655503586
0.0017868479595
0.00335085477426
0.00632047485571
0.0103707744926
0.0137382473057
0.0150874083174
0.0151958441184
0.0150735059454
0.0149473341779
0.0148248186216
0.014704571812
0.014588002498
0.0144764972113
0.0143705726481
0.0142698517375
0.0141737459715
0.014082824728
0.0139980199299
0.0139200053707
0.0138492399221
0.0137855041418
0.0137288310598
0.0136797091734
0.0136378590704
0.013602275987
0.013574932519
0.00101999409769
0.00101999409769
0.00101999409769
0.00101999409769
0.00101999409769
0.00101999409769
0.00101999409769
0.00101999409769
0.00101999409769
0.00101999409769
0.00101999409769
0.00101999409769
0.00101999409769
0.00101999409769
0.00101999409769
0.00101999409769
0.00101999409769
0.00101999409769
0.00101999409769
0.00101999409769
0.00101999409769
0.00101999409769
0.00101999409769
0.00101999409769
0.00101999409769
0.00101999409769
0.00101999409769
0.00101999409769
0.00101999409769
0.00101999409769
0.00101999409769
0.00101999409769
0.00101999409769
0.00101999409769
0.00101999409769
0.00101999409769
0.00101999409769
0.00101999409774
0.00101999410134
0.00101999436903
0.00102001219521
0.00102117235104
0.00103824796608
0.00118140127909
0.00177019909296
0.00331306796704
0.00625703175532
0.0103007909609
0.0136890058491
0.0150527143803
0.0151538284259
0.0150205030409
0.0148834428593
0.0147507075651
0.0146218906172
0.0144977346582
0.0143795300597
0.014267334052
0.0141606994886
0.0140594635002
0.0139635976558
0.0138742825807
0.0137926503464
0.0137188040533
0.0136523666337
0.0135924379328
0.0135392981708
0.0134940909822
0.0134562358827
0.0134246715971
0.00101999409769
0.00101999409769
0.00101999409769
0.00101999409769
0.00101999409769
0.00101999409769
0.00101999409769
0.00101999409769
0.00101999409769
0.00101999409769
0.00101999409769