/*--------------------------------*- C++ -*----------------------------------*\
| =========                 |                                                 |
| \\      /  F ield         | foam-extend: Open Source CFD                    |
|  \\    /   O peration     | Version:     4.1                                |
|   \\  /    A nd           | Web:         http://www.foam-extend.org         |
|    \\/     M anipulation  |                                                 |
\*---------------------------------------------------------------------------*/
FoamFile
{
    version     2.0;
    format      ascii;
    class       volScalarField;
    location    "0.0001";
    object      T;
}
// * * * * * * * * * * * * * * * * * * * * * * * * * * * * * * * * * * * * * //

dimensions      [0 0 0 1 0 0 0];

internalField   nonuniform List<scalar> 
8400
(
226.836296594
226.836296594
226.836296594
226.836296594
226.836296594
226.836296594
226.836296594
226.836296594
226.836296594
226.836296594
226.836296594
226.836296594
226.836296594
226.836296594
226.836296594
226.836296594
226.836296594
226.836296594
226.836296594
226.836296594
226.836296594
226.836296594
226.836296594
226.836296594
226.836296594
226.836296594
226.836296594
226.836296594
226.836296594
226.836296594
226.836296594
226.836296594
226.836296594
226.836296594
226.836296594
226.836296594
226.836296594
226.836296595
226.836296615
226.836298223
226.836413955
226.845155117
226.988994586
2358.96448394
5963.49449256
11879.6445968
14584.1778385
16504.5605819
17683.9362868
18222.8753066
18386.0370319
18432.2919122
18457.2513608
18481.7815538
18506.3566922
18531.6865416
18556.8867289
18584.0876625
18611.8853981
18639.5221914
18665.6278284
18691.9575385
18717.1143575
18740.5176654
18761.7038759
18778.826394
18794.4159879
18806.3593199
18814.6457271
18830.1395817
226.836296592
226.836296592
226.836296592
226.836296592
226.836296592
226.836296592
226.836296592
226.836296592
226.836296592
226.836296592
226.836296592
226.836296592
226.836296592
226.836296592
226.836296592
226.836296592
226.836296592
226.836296592
226.836296592
226.836296593
226.836296593
226.836296593
226.836296593
226.836296593
226.836296593
226.836296593
226.836296593
226.836296593
226.836296593
226.836296593
226.836296593
226.836296593
226.836296593
226.836296593
226.836296593
226.836296593
226.836296593
226.836296594
226.836296711
226.836306018
226.837061883
226.863843707
496.733452099
4102.39656332
8999.88085045
13255.2100302
15578.1963132
17228.9573595
18097.1641529
18421.4618389
18503.5940598
18532.8053307
18557.0910453
18581.6717411
18606.9038899
18633.326367
18661.132906
18688.5324865
18717.2138485
18745.1514544
18772.1555937
18797.9667875
18822.2557041
18844.8449066
18863.879432
18881.9474442
18897.2066264
18909.2174042
18917.4035528
18928.9414007
226.836296592
226.836296592
226.836296592
226.836296592
226.836296592
226.836296592
226.836296592
226.836296592
226.836296592
226.836296592
226.836296592
226.836296592
226.836296592
226.836296592
226.836296592
226.836296592
226.836296592
226.836296592
226.836296592
226.836296592
226.836296592
226.836296592
226.836296592
226.836296592
226.836296592
226.836296592
226.836296592
226.836296592
226.836296592
226.836296592
226.836296592
226.836296592
226.836296592
226.836296592
226.836296592
226.836296592
226.836296592
226.836296596
226.836296939
226.836323111
226.838451763
226.892947114
1030.43798924
5195.81360938
10659.2088
13897.2269145
16073.858994
17526.0090879
18240.7529141
18476.0570531
18527.3743353
18551.0433489
18573.6616333
18596.907744
18620.7149609
18645.8669517
18672.4411713
18700.204276
18726.5810549
18753.1716818
18778.5473909
18802.5758096
18825.249016
18846.3506147
18864.0884242
18880.9005389
18895.0579002
18906.1440708
18913.569404
18923.0931792
226.836296592
226.836296592
226.836296592
226.836296592
226.836296592
226.836296592
226.836296592
226.836296592
226.836296592
226.836296592
226.836296592
226.836296592
226.836296592
226.836296592
226.836296592
226.836296592
226.836296592
226.836296592
226.836296592
226.836296592
226.836296592
226.836296592
226.836296592
226.836296592
226.836296592
226.836296592
226.836296592
226.836296592
226.836296592
226.836296592
226.836296592
226.836296592
226.836296592
226.836296592
226.836296592
226.836296592
226.836296592
226.836296598
226.836297131
226.836337772
226.83965583
226.914543505
1434.86242912
5466.47573757
11157.97908
14188.0445493
16267.1514981
17616.6848459
18271.4244928
18466.9933035
18511.7330479
18534.7316886
18556.7207564
18579.2790209
18602.6909426
18627.8562884
18654.5817375
18681.8423866
18707.2576428
18732.7873928
18757.4327665
18781.2859591
18803.7829462
18824.3742819
18841.3823031
18857.3601915
18870.7772613
18881.2575656
18888.2031669
18896.9760801
226.836296592
226.836296592
226.836296592
226.836296592
226.836296592
226.836296592
226.836296592
226.836296592
226.836296592
226.836296592
226.836296592
226.836296592
226.836296592
226.836296592
226.836296592
226.836296592
226.836296592
226.836296592
226.836296592
226.836296592
226.836296592
226.836296592
226.836296592
226.836296592
226.836296592
226.836296592
226.836296592
226.836296592
226.836296592
226.836296592
226.836296592
226.836296592
226.836296592
226.836296592
226.836296592
226.836296592
226.836296592
226.836296599
226.83629722
226.836344688
226.840231379
226.923989431
1606.46872655
5554.76526929
11302.0573726
14255.4906137
16309.2880544
17646.2614395
18253.6930331
18431.3834183
18475.4925339
18498.1512612
18520.7515595
18543.2120938
18566.7124017
18591.6919956
18618.3563664
18644.3666512
18670.655416
18695.846783
18720.1489158
18743.6477168
18765.8681249
18786.0055743
18802.6809373
18818.419872
18831.9031585
18842.6046363
18849.7552219
18858.5292148
226.836296592
226.836296592
226.836296592
226.836296592
226.836296592
226.836296592
226.836296592
226.836296592
226.836296592
226.836296592
226.836296592
226.836296592
226.836296592
226.836296592
226.836296592
226.836296592
226.836296592
226.836296592
226.836296592
226.836296592
226.836296592
226.836296592
226.836296592
226.836296592
226.836296592
226.836296592
226.836296592
226.836296592
226.836296592
226.836296592
226.836296592
226.836296592
226.836296592
226.836296592
226.836296592
226.836296592
226.836296592
226.836296599
226.836297229
226.836345265
226.840269925
226.924880667
1628.85315526
5561.23661431
11312.2434041
14244.6043262
16309.0313156
17592.1867766
18205.0003369
18382.615995
18424.5952755
18447.7183199
18470.5022575
18493.2257938
18516.6524551
18541.4375992
18568.00747
18593.8379723
18620.2062707
18645.2721302
18669.4205456
18692.9381996
18715.2564333
18734.3271879
18752.2596608
18767.7482215
18780.8683554
18791.2845195
18798.4024935
18807.2902786
226.836296592
226.836296592
226.836296592
226.836296592
226.836296592
226.836296592
226.836296592
226.836296592
226.836296592
226.836296592
226.836296592
226.836296592
226.836296592
226.836296592
226.836296592
226.836296592
226.836296592
226.836296592
226.836296592
226.836296592
226.836296592
226.836296592
226.836296592
226.836296592
226.836296592
226.836296592
226.836296592
226.836296592
226.836296592
226.836296592
226.836296592
226.836296592
226.836296592
226.836296592
226.836296592
226.836296592
226.836296592
226.836296599
226.83629719
226.836342437
226.840061661
226.921585705
1567.28717157
5528.2106267
11238.4802583
14201.1202934
16225.4346367
17545.9849234
18137.5534236
18318.8896077
18361.5905174
18384.5641847
18408.0559161
18431.5130604
18455.3115896
18480.1782506
18506.3394321
18531.8284177
18558.1381358
18583.3943383
18608.0671701
18631.8404038
18654.2783695
18673.4207584
18691.0864181
18706.1037288
18718.7696217
18728.9799859
18736.2639256
18745.5135607
226.836296592
226.836296592
226.836296592
226.836296592
226.836296592
226.836296592
226.836296592
226.836296592
226.836296592
226.836296592
226.836296592
226.836296592
226.836296592
226.836296592
226.836296592
226.836296592
226.836296592
226.836296592
226.836296592
226.836296592
226.836296592
226.836296592
226.836296592
226.836296592
226.836296592
226.836296592
226.836296592
226.836296592
226.836296592
226.836296592
226.836296592
226.836296592
226.836296592
226.836296592
226.836296592
226.836296592
226.836296592
226.836296598
226.836297137
226.836338514
226.839724375
226.915912473
1463.39147847
5468.02622073
11120.4630855
14107.6870772
16151.31613
17448.2457957
18065.0101092
18245.3386943
18287.974783
18311.3169921
18335.2019176
18359.1268249
18383.422982
18408.6678556
18434.938656
18460.4987824
18486.7280248
18512.0124708
18536.765529
18560.6135553
18581.9576679
18602.3183013
18619.8218585
18634.5280356
18646.8526248
18656.9400375
18664.2812394
18673.7249753
226.836296592
226.836296592
226.836296592
226.836296592
226.836296592
226.836296592
226.836296592
226.836296592
226.836296592
226.836296592
226.836296592
226.836296592
226.836296592
226.836296592
226.836296592
226.836296592
226.836296592
226.836296592
226.836296592
226.836296592
226.836296592
226.836296592
226.836296592
226.836296592
226.836296592
226.836296592
226.836296592
226.836296592
226.836296592
226.836296592
226.836296592
226.836296592
226.836296592
226.836296592
226.836296592
226.836296592
226.836296592
226.836296597
226.836297071
226.836333335
226.839285823
226.909039906
1328.66191045
5394.42847545
10975.8051859
14010.267736
16036.7530647
17358.7541897
17975.1281025
18159.8302601
18204.0547318
18228.8679483
18252.3085836
18276.9221818
18301.8889769
18327.3632313
18353.8462213
18379.5291971
18406.052616
18431.5981602
18456.4216895
18480.3153836
18501.5876169
18521.8211717
18539.4159879
18554.2920273
18566.5760531
18576.4978052
18583.5605766
18592.3949686
226.836296592
226.836296592
226.836296592
226.836296592
226.836296592
226.836296592
226.836296592
226.836296592
226.836296592
226.836296592
226.836296592
226.836296592
226.836296592
226.836296592
226.836296592
226.836296592
226.836296592
226.836296592
226.836296592
226.836296592
226.836296592
226.836296592
226.836296592
226.836296592
226.836296592
226.836296592
226.836296592
226.836296592
226.836296592
226.836296592
226.836296592
226.836296592
226.836296592
226.836296592
226.836296592
226.836296592
226.836296592
226.836296596
226.836297002
226.836328143
226.838854156
226.901873551
1184.5432035
5308.47583979
10787.9275543
13895.452109
15940.407524
17239.0694655
17872.6588328
18067.1761005
18113.4859409
18138.1286188
18161.5473183
18186.3931245
18211.5957
18237.7206482
18264.4782556
18290.6150028
18317.1312421
18342.9205186
18367.6801576
18390.3788686
18412.8399264
18433.1609316
18450.8867473
18465.8879103
18478.1426221
18487.6003407
18494.1434643
18502.2146905
226.836296592
226.836296592
226.836296592
226.836296592
226.836296592
226.836296592
226.836296592
226.836296592
226.836296592
226.836296592
226.836296592
226.836296592
226.836296592
226.836296592
226.836296592
226.836296592
226.836296592
226.836296592
226.836296592
226.836296592
226.836296592
226.836296592
226.836296592
226.836296592
226.836296592
226.836296592
226.836296592
226.836296592
226.836296592
226.836296592
226.836296592
226.836296592
226.836296592
226.836296592
226.836296592
226.836296592
226.836296592
226.836296596
226.836296947
226.836323837
226.83848678
226.894899127
1048.99742724
5212.51720622
10580.4289773
13762.8314724
15813.0784082
17117.3619049
17763.8315097
17965.5001787
18014.2579252
18039.6825325
18063.4715618
18088.7540846
18114.6989522
18140.9415417
18166.8334677
18193.9646814
18220.6890719
18246.7188584
18271.7725672
18294.4262588
18316.642794
18336.6246177
18354.1775282
18369.1835838
18381.5770133
18391.2876238
18396.7918618
18405.8284264
226.836296592
226.836296592
226.836296592
226.836296592
226.836296592
226.836296592
226.836296592
226.836296592
226.836296592
226.836296592
226.836296592
226.836296592
226.836296592
226.836296592
226.836296592
226.836296592
226.836296592
226.836296592
226.836296592
226.836296592
226.836296592
226.836296592
226.836296592
226.836296592
226.836296592
226.836296592
226.836296592
226.836296592
226.836296592
226.836296592
226.836296592
226.836296592
226.836296592
226.836296592
226.836296592
226.836296592
226.836296592
226.836296595
226.836296894
226.836319918
226.838159941
226.888293291
924.767159415
5095.92758496
10356.1255851
13621.7926716
15675.3497766
17012.2563783
17642.5575569
17855.2215128
17906.6023674
17933.47357
17958.3919489
17984.349226
18010.5174955
18036.9574476
18062.8145237
18089.9408377
18116.8873949
18143.3473254
18167.7284295
18191.570266
18213.5142508
18233.3521133
18250.6922429
18265.6646869
18277.0315643
18286.7464605
18293.3613722
18300.9998308
226.836296592
226.836296592
226.836296592
226.836296592
226.836296592
226.836296592
226.836296592
226.836296592
226.836296592
226.836296592
226.836296592
226.836296592
226.836296592
226.836296592
226.836296592
226.836296592
226.836296592
226.836296592
226.836296592
226.836296592
226.836296592
226.836296592
226.836296592
226.836296592
226.836296592
226.836296592
226.836296592
226.836296592
226.836296592
226.836296592
226.836296592
226.836296592
226.836296592
226.836296592
226.836296592
226.836296592
226.836296592
226.836296595
226.836296845
226.836316371
226.837875022
226.882163397
801.432353446
4969.48421311
10084.2790681
13481.3954126
15529.671734
16868.4321934
17521.453113
17741.9423297
17793.5722752
17820.4848041
17845.4704742
17872.1647173
17898.9697575
17925.9584288
17952.1343809
17979.4810982
18006.6363942
18033.1134143
18057.5706359
18081.6107621
18103.8213659
18123.8411973
18140.2595866
18155.1611596
18167.3826266
18176.730844
18183.0425729
18190.2418339
226.836296592
226.836296592
226.836296592
226.836296592
226.836296592
226.836296592
226.836296592
226.836296592
226.836296592
226.836296592
226.836296592
226.836296592
226.836296592
226.836296592
226.836296592
226.836296592
226.836296592
226.836296592
226.836296592
226.836296592
226.836296592
226.836296592
226.836296592
226.836296592
226.836296592
226.836296592
226.836296592
226.836296592
226.836296592
226.836296592
226.836296592
226.836296592
226.836296592
226.836296592
226.836296592
226.836296592
226.836296592
226.836296594
226.836296801
226.836313067
226.837607814
226.876613601
701.862796424
4795.23717907
9733.05179765
13338.8700313
15384.6850018
16722.1932689
17391.1710466
17619.372849
17674.6643687
17702.4712118
17728.03652
17754.7849508
17781.8694797
17808.4440663
17836.0755114
17863.7994066
17890.8937528
17916.3251442
17941.6026576
17965.5755373
17988.0180156
18007.6233475
18025.4152986
18040.2470512
18052.0067122
18060.7516298
18066.4805957
18072.8536321
226.836296592
226.836296592
226.836296592
226.836296592
226.836296592
226.836296592
226.836296592
226.836296592
226.836296592
226.836296592
226.836296592
226.836296592
226.836296592
226.836296592
226.836296592
226.836296592
226.836296592
226.836296592
226.836296592
226.836296592
226.836296592
226.836296592
226.836296592
226.836296592
226.836296592
226.836296592
226.836296592
226.836296592
226.836296592
226.836296592
226.836296592
226.836296592
226.836296592
226.836296592
226.836296592
226.836296592
226.836296592
226.836296594
226.836296767
226.836310522
226.837421488
226.872290048
621.930318074
4606.3193583
9385.86719916
13173.9881937
15242.3789438
16582.1593599
17259.6277344
17491.0777935
17548.5935509
17577.4038975
17603.5272615
17631.0617043
17658.9245829
17686.3914815
17714.6131765
17742.6091609
17768.9424248
17795.2477779
17820.353251
17844.3905219
17866.0940693
17886.6443198
17904.4148681
17919.1332195
17930.6764775
17939.1602954
17943.7143668
17950.7859584
226.836296592
226.836296592
226.836296592
226.836296592
226.836296592
226.836296592
226.836296592
226.836296592
226.836296592
226.836296592
226.836296592
226.836296592
226.836296592
226.836296592
226.836296592
226.836296592
226.836296592
226.836296592
226.836296592
226.836296592
226.836296592
226.836296592
226.836296592
226.836296592
226.836296592
226.836296592
226.836296592
226.836296592
226.836296592
226.836296592
226.836296592
226.836296592
226.836296592
226.836296592
226.836296592
226.836296592
226.836296592
226.836296593
226.836296739
226.836308283
226.837241471
226.86896997
556.684634816
4350.49131791
8903.24616423
13018.7797827
15089.1163757
16433.2743175
17112.8687037
17354.496144
17416.9938577
17447.0252754
17474.3370553
17502.5674299
17531.0576186
17558.8650543
17587.5503633
17616.0821011
17642.7779072
17669.0492609
17694.2079489
17717.2306376
17739.7711204
17760.2946413
17778.2257785
17792.9984161
17803.607263
17811.9603033
17817.3857047
17823.0076405
226.836296592
226.836296592
226.836296592
226.836296592
226.836296592
226.836296592
226.836296592
226.836296592
226.836296592
226.836296592
226.836296592
226.836296592
226.836296592
226.836296592
226.836296592
226.836296592
226.836296592
226.836296592
226.836296592
226.836296592
226.836296592
226.836296592
226.836296592
226.836296592
226.836296592
226.836296592
226.836296592
226.836296592
226.836296592
226.836296592
226.836296592
226.836296592
226.836296592
226.836296592
226.836296592
226.836296592
226.836296592
226.836296593
226.836296714
226.83630629
226.83707899
226.866105197
495.541922773
3995.87507171
8303.89134785
12848.4028781
14938.0270873
16272.2792163
16974.5377179
17220.2519198
17281.3843085
17311.1578813
17339.9723423
17369.1884338
17397.549192
17426.6550577
17455.8853558
17483.9111255
17511.7321618
17538.3333361
17562.8004154
17586.7715819
17609.3009695
17629.7975574
17646.5527294
17661.0681482
17672.4156498
17680.8898947
17686.4919527
17691.8936592
226.836296591
226.836296591
226.836296591
226.836296591
226.836296592
226.836296592
226.836296592
226.836296592
226.836296592
226.836296592
226.836296592
226.836296592
226.836296592
226.836296592
226.836296592
226.836296592
226.836296592
226.836296592
226.836296592
226.836296592
226.836296592
226.836296592
226.836296592
226.836296592
226.836296592
226.836296592
226.836296592
226.836296592
226.836296592
226.836296592
226.836296592
226.836296592
226.836296592
226.836296592
226.836296592
226.836296592
226.836296592
226.836296593
226.836296695
226.836304628
226.83694589
226.863722447
454.677345085
3566.84234897
7588.88173212
12691.1052404
14779.3875152
16123.1071546
16820.1067776
17079.5794336
17142.6704439
17172.740875
17202.2322348
17231.9329544
17261.0932239
17290.8008458
17319.409544
17348.383107
17376.4223354
17402.4710971
17428.019551
17452.0189612
17473.6358516
17494.0956687
17511.6736252
17526.1068141
17537.4523363
17545.8322359
17550.4153191
17555.5187997
226.836296591
226.836296591
226.836296591
226.836296591
226.836296591
226.836296591
226.836296591
226.836296591
226.836296591
226.836296591
226.836296591
226.836296591
226.836296592
226.836296592
226.836296592
226.836296592
226.836296592
226.836296592
226.836296592
226.836296592
226.836296592
226.836296592
226.836296592
226.836296592
226.836296592
226.836296592
226.836296592
226.836296592
226.836296592
226.836296592
226.836296592
226.836296592
226.836296592
226.836296592
226.836296592
226.836296592
226.836296592
226.836296593
226.836296682
226.836303517
226.836845675
226.861755767
418.05966598
3265.3341394
7162.59657762
12515.8961836
14618.6810057
15968.2916118
16675.125154
16932.1487376
16997.8497165
17030.2190491
17060.463711
17089.9419728
17120.1716071
17150.6257669
17179.8393175
17209.1777293
17236.7564296
17263.7989579
17289.4453982
17312.7369136
17335.1635994
17355.3249521
17372.8601266
17386.364234
17397.768908
17406.1218006
17411.5320484
17415.8734019
226.836296591
226.836296591
226.836296591
226.836296591
226.836296591
226.836296591
226.836296591
226.836296591
226.836296591
226.836296591
226.836296591
226.836296591
226.836296591
226.836296591
226.836296591
226.836296591
226.836296591
226.836296591
226.836296591
226.836296591
226.836296592
226.836296592
226.836296592
226.836296592
226.836296592
226.836296592
226.836296592
226.836296592
226.836296592
226.836296592
226.836296592
226.836296592
226.836296592
226.836296592
226.836296592
226.836296592
226.836296592
226.836296593
226.836296671
226.836302545
226.836756588
226.859918772
383.741809398
3088.20569416
6830.38554383
12348.4909464
14461.4619183
15808.7197051
16520.0689207
16783.2006497
16851.3425272
16884.1432203
16915.2529949
16945.4087867
16976.1162846
17005.9486063
17036.4041434
17066.4041536
17094.4858805
17122.0308996
17146.958087
17170.905203
17193.1002811
17212.1681768
17229.67257
17244.1690167
17255.4699501
17263.6652706
17267.9518315
17271.9433958
226.836296591
226.836296591
226.836296591
226.836296591
226.836296591
226.836296591
226.836296591
226.836296591
226.836296591
226.836296591
226.836296591
226.836296591
226.836296591
226.836296591
226.836296591
226.836296591
226.836296591
226.836296591
226.836296591
226.836296591
226.836296591
226.836296591
226.836296591
226.836296591
226.836296591
226.836296591
226.836296591
226.836296592
226.836296592
226.836296592
226.836296592
226.836296592
226.836296592
226.836296592
226.836296592
226.836296592
226.836296592
226.836296592
226.836296661
226.836301811
226.836673675
226.85834614
360.836366183
2974.72874363
6630.83244691
12188.7273909
14301.9637564
15654.5203525
16355.7058264
16624.6015962
16698.2616691
16733.2541192
16765.4390693
16796.6248406
16828.2069907
16858.8153704
16889.9503298
16919.7232619
16949.0364631
16976.0711244
17001.9164882
17026.0066474
17047.113076
17067.0027856
17084.2093334
17097.651151
17108.9911839
17117.2450355
17122.3678812
17125.9137949
226.836296591
226.836296591
226.836296591
226.836296591
226.836296591
226.836296591
226.836296591
226.836296591
226.836296591
226.836296591
226.836296591
226.836296591
226.836296591
226.836296591
226.836296591
226.836296591
226.836296591
226.836296591
226.836296591
226.836296591
226.836296591
226.836296591
226.836296591
226.836296591
226.836296591
226.836296591
226.836296591
226.836296591
226.836296591
226.836296591
226.836296591
226.836296591
226.836296592
226.836296592
226.836296592
226.836296592
226.836296592
226.836296592
226.836296655
226.836301338
226.836619875
226.856890577
324.26446217
2889.03060281
6476.9548786
12017.8211882
14150.2080063
15481.3675514
16200.8458378
16471.7088055
16545.022737
16580.6193231
16613.2132763
16645.7182599
16677.1071563
16709.0285445
16739.7435554
16770.5664024
16799.4804136
16827.5468153
16852.8881356
16876.9606404
16899.0501232
16917.8000257
16934.952277
16949.2467039
16960.4373912
16967.6994433
16973.0188699
16976.3625452
226.836296591
226.836296591
226.836296591
226.836296591
226.836296591
226.836296591
226.836296591
226.836296591
226.836296591
226.836296591
226.836296591
226.836296591
226.836296591
226.836296591
226.836296591
226.836296591
226.836296591
226.836296591
226.836296591
226.836296591
226.836296591
226.836296591
226.836296591
226.836296591
226.836296591
226.836296591
226.836296591
226.836296591
226.836296591
226.836296591
226.836296591
226.836296591
226.836296591
226.836296591
226.836296591
226.836296591
226.836296592
226.836296592
226.836296649
226.836300909
226.836587358
226.855532546
310.423514811
2812.70793935
6347.26941565
11844.3277893
14009.3447746
15326.5080094
16040.6344057
16310.8784157
16387.8785786
16424.3644926
16457.7278994
16491.3468732
16523.5236741
16555.354571
16587.3011395
16617.8771303
16647.8525307
16675.4050257
16701.8084419
16726.1683083
16747.3467453
16766.8586631
16783.8462145
16797.1258247
16808.4476974
16816.7241574
16821.9749511
16824.8426512
226.836296591
226.836296591
226.836296591
226.836296591
226.836296591
226.836296591
226.836296591
226.836296591
226.836296591
226.836296591
226.836296591
226.836296591
226.836296591
226.836296591
226.836296591
226.836296591
226.836296591
226.836296591
226.836296591
226.836296591
226.836296591
226.836296591
226.836296591
226.836296591
226.836296591
226.836296591
226.836296591
226.836296591
226.836296591
226.836296591
226.836296591
226.836296591
226.836296591
226.836296591
226.836296591
226.836296591
226.836296592
226.836296592
226.836296644
226.836300535
226.836564691
226.85439954
301.352682032
2750.69951162
6249.66444239
11688.0402489
13842.138354
15175.584094
15874.2700876
16149.9976028
16227.2047698
16264.109051
16299.2649939
16333.051507
16366.9405235
16399.5821564
16431.3896513
16463.0295092
16492.7912496
16521.3501266
16547.2521331
16571.7162675
16593.6799302
16612.5062458
16629.3712541
16643.5648141
16654.0664304
16662.3495858
16667.5539629
16669.9051146
226.836296591
226.836296591
226.836296591
226.836296591
226.836296591
226.836296591
226.836296591
226.836296591
226.836296591
226.836296591
226.836296591
226.836296591
226.836296591
226.836296591
226.836296591
226.836296591
226.836296591
226.836296591
226.836296591
226.836296591
226.836296591
226.836296591
226.836296591
226.836296591
226.836296591
226.836296591
226.836296591
226.836296591
226.836296591
226.836296591
226.836296591
226.836296591
226.836296591
226.836296591
226.836296591
226.836296591
226.836296592
226.836296592
226.83629664
226.836300263
226.836546861
226.853400981
284.587491818
2702.11565484
6163.69372864
11528.1744874
13701.1374259
15005.950919
15716.4525748
15987.2677198
16063.6754049
16101.4594963
16137.0800315
16172.7499063
16206.8370905
16241.0154846
16273.5412019
16305.1232027
16335.7510763
16363.7917452
16390.7544266
16414.4725334
16436.7148359
16456.3262322
16472.5687246
16486.6566259
16497.8308259
16506.064904
16510.3290097
16512.4298438
226.836296591
226.836296591
226.836296591
226.836296591
226.836296591
226.836296591
226.836296591
226.836296591
226.836296591
226.836296591
226.836296591
226.836296591
226.836296591
226.836296591
226.836296591
226.836296591
226.836296591
226.836296591
226.836296591
226.836296591
226.836296591
226.836296591
226.836296591
226.836296591
226.836296591
226.836296591
226.836296591
226.836296591
226.836296591
226.836296591
226.836296591
226.836296591
226.836296591
226.836296591
226.836296591
226.836296591
226.836296592
226.836296592
226.836296637
226.836300016
226.83653021
226.852446761
273.801876427
2653.28314395
6076.43261196
11368.9029409
13537.0193199
14858.8095713
15553.9157134
15820.9698483
15898.2030086
15937.1866058
15973.876064
16009.4853021
16045.0876942
16079.406438
16112.7315081
16145.5019131
16175.9981697
16205.1911423
16231.2618861
16255.9091534
16277.3319046
16297.081238
16314.0665523
16327.5010531
16338.5693503
16346.5408802
16351.4879928
16352.1898752
226.836296591
226.836296591
226.836296591
226.836296591
226.836296591
226.836296591
226.836296591
226.836296591
226.836296591
226.836296591
226.836296591
226.836296591
226.836296591
226.836296591
226.836296591
226.836296591
226.836296591
226.836296591
226.836296591
226.836296591
226.836296591
226.836296591
226.836296591
226.836296591
226.836296591
226.836296591
226.836296591
226.836296591
226.836296591
226.836296591
226.836296591
226.836296591
226.836296591
226.836296591
226.836296591
226.836296591
226.836296592
226.836296592
226.836296636
226.836299905
226.836522673
226.851950688
266.093517709
2616.45335364
6017.35138353
11213.9507719
13401.8872723
14705.0954045
15379.723134
15651.1560951
15728.1780756
15768.8647868
15807.5132459
15844.3229471
15880.2786901
15915.8958998
15949.9490977
15982.5095211
16014.1360875
16042.7503725
16070.0397787
16093.9740433
16116.3081022
16135.281192
16152.2382726
16165.5884666
16176.7703245
16184.848047
16189.8227941
16190.2173856
226.836296591
226.836296591
226.836296591
226.836296591
226.836296591
226.836296591
226.836296591
226.836296591
226.836296591
226.836296591
226.836296591
226.836296591
226.836296591
226.836296591
226.836296591
226.836296591
226.836296591
226.836296591
226.836296591
226.836296591
226.836296591
226.836296591
226.836296591
226.836296591
226.836296591
226.836296591
226.836296591
226.836296591
226.836296591
226.836296591
226.836296591
226.836296591
226.836296591
226.836296591
226.836296591
226.836296591
226.836296591
226.836296592
226.836296635
226.83629984
226.836515937
226.851458284
259.977434939
2588.86901648
5968.62964225
11080.7300503
13273.4691442
14543.7894565
15213.0405104
15481.6053732
15558.0536035
15598.3981082
15637.3429032
15675.3571668
15713.2055184
15749.3473263
15784.0754058
15817.905779
15848.9586677
15877.9754355
15905.5036406
15929.7414645
15952.1104987
15971.0733614
15988.1259754
16002.2496317
16012.4583446
16020.5034607
16025.5527003
16026.4648164
226.836296591
226.836296591
226.836296591
226.836296591
226.836296591
226.836296591
226.836296591
226.836296591
226.836296591
226.836296591
226.836296591
226.836296591
226.836296591
226.836296591
226.836296591
226.836296591
226.836296591
226.836296591
226.836296591
226.836296591
226.836296591
226.836296591
226.836296591
226.836296591
226.836296591
226.836296591
226.836296591
226.836296591
226.836296591
226.836296591
226.836296591
226.836296591
226.836296591
226.836296591
226.836296591
226.836296591
226.836296591
226.836296592
226.836296636
226.836299848
226.836514734
226.851276167
253.801182994
2561.65492166
5929.95145014
10925.8939424
13135.0085113
14393.6267066
15049.8654531
15305.0942164
15382.7447146
15424.6307695
15465.3135519
15504.8441407
15543.0133869
15580.021795
15616.0781166
15649.896454
15681.5723587
15711.8403457
15738.927244
15763.3995564
15785.8064585
15805.5309082
15821.6370976
15835.6581267
15846.0156051
15854.1799552
15859.2138395
15859.7730814
226.836296591
226.836296591
226.836296591
226.836296591
226.836296591
226.836296591
226.836296591
226.836296591
226.836296591
226.836296591
226.836296591
226.836296591
226.836296591
226.836296591
226.836296591
226.836296591
226.836296591
226.836296591
226.836296591
226.836296591
226.836296591
226.836296591
226.836296591
226.836296591
226.836296591
226.836296591
226.836296591
226.836296591
226.836296591
226.836296591
226.836296591
226.836296591
226.836296591
226.836296591
226.836296591
226.836296591
226.836296591
226.836296592
226.836296638
226.836299948
226.836519943
226.851473634
256.647979366
2554.75698697
5902.82449368
10797.5622138
13007.0948557
14243.7019775
14878.1277353
15131.092621
15204.9276875
15247.8356021
15289.8818319
15330.8464893
15370.3398265
15409.1300386
15445.4253223
15479.528914
15511.770667