/*--------------------------------*- C++ -*----------------------------------*\
| =========                 |                                                 |
| \\      /  F ield         | foam-extend: Open Source CFD                    |
|  \\    /   O peration     | Version:     4.1                                |
|   \\  /    A nd           | Web:         http://www.foam-extend.org         |
|    \\/     M anipulation  |                                                 |
\*---------------------------------------------------------------------------*/
FoamFile
{
    version     2.0;
    format      ascii;
    class       volVectorField;
    location    "0.0001";
    object      U;
}
// * * * * * * * * * * * * * * * * * * * * * * * * * * * * * * * * * * * * * //

dimensions      [0 1 -1 0 0 0 0];

internalField   nonuniform List<vector> 
8400
(
(16999.9999993 1.78009921489e-09 2.8272051298e-12)
(16999.9999993 1.80775738208e-09 2.76504825721e-12)
(16999.9999993 1.8349281876e-09 2.70112919434e-12)
(16999.9999994 1.8616219059e-09 2.63930218071e-12)
(16999.9999994 1.88785060035e-09 2.58544909327e-12)
(16999.9999994 1.91362536092e-09 2.53186745844e-12)
(16999.9999994 1.93895844792e-09 2.47860510604e-12)
(16999.9999994 1.96386149982e-09 2.42822574104e-12)
(16999.9999994 1.98834647436e-09 2.37775292815e-12)
(16999.9999994 2.01242450643e-09 2.33042054592e-12)
(16999.9999994 2.03610721368e-09 2.28299625177e-12)
(16999.9999995 2.05940686245e-09 2.23873095992e-12)
(16999.9999995 2.08233524658e-09 2.19498628654e-12)
(16999.9999995 2.1049048008e-09 2.15087348252e-12)
(16999.9999995 2.12712681111e-09 2.11350452872e-12)
(16999.9999995 2.14901332065e-09 2.07563625152e-12)
(16999.9999995 2.1705757227e-09 2.03845098806e-12)
(16999.9999995 2.19182505156e-09 2.00385617923e-12)
(16999.9999995 2.212772116e-09 1.96847309852e-12)
(16999.9999995 2.23342730217e-09 1.93506759696e-12)
(16999.9999995 2.25380132179e-09 1.89826698147e-12)
(16999.9999995 2.27390332938e-09 1.86106480427e-12)
(16999.9999996 2.29374331382e-09 1.83454573152e-12)
(16999.9999996 2.31333001087e-09 1.80643415977e-12)
(16999.9999996 2.33267237316e-09 1.77922892332e-12)
(16999.9999996 2.35177763014e-09 1.75170247473e-12)
(16999.9999996 2.37065341851e-09 1.72761586728e-12)
(16999.9999996 2.38930674162e-09 1.70293169475e-12)
(16999.9999996 2.40774343941e-09 1.67667671089e-12)
(16999.9999996 2.42596921939e-09 1.65378604503e-12)
(16999.9999996 2.44398901715e-09 1.63141703242e-12)
(16999.9999996 2.46180721287e-09 1.61363929062e-12)
(16999.9999996 2.47942764247e-09 1.59420468972e-12)
(16999.9999996 2.49685349133e-09 1.57940616531e-12)
(16999.9999996 2.51408826418e-09 1.55657527344e-12)
(16999.9999996 2.53115837179e-09 1.17037623729e-12)
(16999.9999996 2.55000939876e-09 -2.75106328013e-11)
(16999.9999996 2.72431697033e-09 -2.28920182818e-09)
(16999.9999992 1.41304045959e-08 -1.59202884324e-07)
(16999.9999625 8.34467938517e-07 -1.22569934522e-05)
(16999.9969174 3.33927032197e-05 -0.000289990269083)
(16999.8004314 0.000661013924021 -0.003938606467)
(16976.4559575 0.0259998443842 -0.0548325323014)
(16687.9482556 -0.749851203752 -0.148423892082)
(14760.8730347 -3.53577285425 -0.0663567441736)
(10718.6426516 -0.579505163463 0.0370304156894)
(6530.9700134 14.6568494707 0.0404124437335)
(3425.05312016 43.3365655726 0.0259548934148)
(1620.90969217 83.4231817215 0.0144664992852)
(842.42854268 129.858890463 0.0064161809622)
(621.256503845 176.17008743 0.00190272545212)
(569.592176755 219.52756201 -8.9275920458e-05)
(543.731177244 259.795945558 -0.00120921592563)
(518.825503606 297.314409399 -0.00225059001171)
(492.807083044 332.315671478 -0.00338569055793)
(465.342262951 364.98338797 -0.00464685838096)
(436.27794568 395.441608485 -0.00604305571894)
(405.97691661 423.802986572 -0.00757360649585)
(375.121605054 450.141199721 -0.00922809737675)
(343.903796199 474.493034523 -0.01099525925)
(312.028195258 496.88323436 -0.0128610555123)
(279.573392151 517.317518597 -0.0147991504836)
(247.057740756 535.744902687 -0.0167802986332)
(214.614827908 552.113295018 -0.0187823533542)
(182.491997961 566.368819957 -0.0207840722943)
(150.306649358 578.425026802 -0.0227700589702)
(118.13668876 588.235050854 -0.0247412441944)
(86.3306138675 595.71383051 -0.0267152595025)
(54.6853948597 600.829054268 -0.0286888060169)
(38.8611055304 603.512933047 -0.0302674393241)
(16999.9999997 9.26587863698e-10 -4.52126970114e-13)
(16999.9999997 9.41334510874e-10 -4.36777089431e-13)
(16999.9999997 9.55834259019e-10 -4.21000193372e-13)
(16999.9999997 9.70092226896e-10 -4.07043278537e-13)
(16999.9999997 9.8411487315e-10 -3.90794373959e-13)
(16999.9999997 9.97908168394e-10 -3.77011320915e-13)
(16999.9999997 1.01147779525e-09 -3.6356314282e-13)
(16999.9999997 1.02482957881e-09 -3.50124204951e-13)
(16999.9999997 1.0379697039e-09 -3.37872057971e-13)
(16999.9999997 1.05090508425e-09 -3.2556570589e-13)
(16999.9999997 1.06364195308e-09 -3.13436492735e-13)
(16999.9999997 1.07618672538e-09 -3.01951236372e-13)
(16999.9999997 1.08854569287e-09 -2.89651875648e-13)
(16999.9999997 1.10072547813e-09 -2.78689725842e-13)
(16999.9999997 1.11273257989e-09 -2.68115293928e-13)
(16999.9999998 1.12457297734e-09 -2.58284130453e-13)
(16999.9999998 1.13625305796e-09 -2.49086197556e-13)
(16999.9999998 1.14777879422e-09 -2.38219074952e-13)
(16999.9999998 1.15915594961e-09 -2.30532992348e-13)
(16999.9999998 1.17039011118e-09 -2.22720164113e-13)
(16999.9999998 1.18148697665e-09 -2.12999694892e-13)
(16999.9999998 1.19245175255e-09 -2.02882073015e-13)
(16999.9999998 1.20328910097e-09 -1.94199398652e-13)
(16999.9999998 1.21400383425e-09 -1.85701053172e-13)
(16999.9999998 1.22460048344e-09 -1.77653631542e-13)
(16999.9999998 1.2350831175e-09 -1.68975672057e-13)
(16999.9999998 1.24545533105e-09 -1.61046493948e-13)
(16999.9999998 1.25572045427e-09 -1.53648745138e-13)
(16999.9999998 1.26588136093e-09 -1.45083077926e-13)
(16999.9999998 1.27594093129e-09 -1.38193493201e-13)
(16999.9999998 1.28590140312e-09 -1.30474377386e-13)
(16999.9999998 1.2957649035e-09 -1.2277294509e-13)
(16999.9999998 1.30553346336e-09 -1.15460623814e-13)
(16999.9999998 1.31520876357e-09 -1.09085963784e-13)
(16999.9999998 1.32479393782e-09 -1.0356912871e-13)
(16999.9999998 1.33445430889e-09 -2.615405882e-13)
(16999.9999998 1.35746121114e-09 -1.33529344501e-11)
(16999.9999998 2.48450935317e-09 -1.04122922688e-09)
(16999.999997 9.3809851051e-08 -6.95454397554e-08)
(16999.9997479 8.13726706204e-06 -5.3924720432e-06)
(16999.9814392 0.000576904996483 -0.000108411096002)
(16997.7762982 0.0701348767372 -0.00165674319151)
(16934.122032 1.71875841948 -0.018938566729)
(16151.0837148 21.2039107053 -0.0385791811848)
(13122.7741847 97.2891332784 -0.0122998939714)
(8744.24534847 211.621019087 0.00738114507779)
(4912.6183252 316.005511569 0.00689840912854)
(2370.03767024 393.288124909 0.00441962034402)
(1062.96525944 445.968882394 0.00219477389514)
(596.861822393 482.132444151 0.000451389962631)
(485.816605483 510.467705089 -0.000674488434602)
(450.676963823 536.237864738 -0.00141459679881)
(424.74374616 560.792936845 -0.00211862754311)
(400.226923818 584.315434461 -0.00293679954868)
(376.064323996 606.818965087 -0.00389649740605)
(351.531112519 628.305007247 -0.00499923370965)
(326.576760546 648.739629464 -0.00623934332851)
(301.908853263 668.069507954 -0.00760517961923)
(277.915069501 686.245092963 -0.00907907812938)
(254.613102027 703.220412346 -0.0106387651978)
(231.821231457 718.950647499 -0.0122562740141)
(209.122775764 733.395100798 -0.0138965573881)
(186.588653609 746.48418539 -0.015519792871)
(164.530023534 758.144090239 -0.0170839642982)
(142.641179124 768.326654746 -0.0185450292336)
(120.638178947 776.977020454 -0.0198587891495)
(98.6927920775 784.045893281 -0.0209823792238)
(77.0325960561 789.483675981 -0.0218741920656)
(56.0946998503 793.264217785 -0.0224854504242)
(46.155227537 795.201721114 -0.0227404790275)
(16999.9999998 3.61673648827e-10 -2.57887675585e-13)
(16999.9999998 3.67803552854e-10 -2.52477552428e-13)
(16999.9999998 3.73840563058e-10 -2.48178809613e-13)
(16999.9999998 3.79786059676e-10 -2.43829787585e-13)
(16999.9999998 3.85642043916e-10 -2.39386852027e-13)
(16999.9999998 3.91410639665e-10 -2.35162312322e-13)
(16999.9999998 3.97094221613e-10 -2.30816514661e-13)
(16999.9999998 4.02695104e-10 -2.25789867288e-13)
(16999.9999998 4.08215648435e-10 -2.21497873903e-13)
(16999.9999998 4.1365868139e-10 -2.17339247675e-13)
(16999.9999998 4.19027108545e-10 -2.12102045483e-13)
(16999.9999998 4.24323616765e-10 -2.07094699193e-13)
(16999.9999998 4.2955094877e-10 -2.03043386583e-13)
(16999.9999998 4.34711733918e-10 -1.9900905473e-13)
(16999.9999998 4.39808867233e-10 -1.95061419559e-13)
(16999.9999999 4.44844822943e-10 -1.91380301824e-13)
(16999.9999999 4.49822160446e-10 -1.87540949391e-13)
(16999.9999999 4.54743676951e-10 -1.83297987226e-13)
(16999.9999999 4.59611926915e-10 -1.79439150997e-13)
(16999.9999999 4.64429106552e-10 -1.76361402463e-13)
(16999.9999999 4.69197400189e-10 -1.73073907521e-13)
(16999.9999999 4.73919176432e-10 -1.6917296219e-13)
(16999.9999999 4.78596420798e-10 -1.64908714418e-13)
(16999.9999999 4.83230959607e-10 -1.60662560459e-13)
(16999.9999999 4.8782450433e-10 -1.57648858787e-13)
(16999.9999999 4.92378695446e-10 -1.53871332924e-13)
(16999.9999999 4.96894914857e-10 -1.50589521984e-13)
(16999.9999999 5.01374548343e-10 -1.46696309573e-13)
(16999.9999999 5.05818443583e-10 -1.43461975388e-13)
(16999.9999999 5.10227911228e-10 -1.40247208457e-13)
(16999.9999999 5.14603654099e-10 -1.36979790133e-13)
(16999.9999999 5.18946167439e-10 -1.33695430261e-13)
(16999.9999999 5.23256128522e-10 -1.30418687063e-13)
(16999.9999999 5.27533868935e-10 -1.27295837372e-13)
(16999.9999999 5.31788160791e-10 -1.25040403921e-13)
(16999.9999999 5.36740541367e-10 -1.96485870847e-13)
(16999.9999999 6.0438598847e-10 -6.13921589384e-12)
(16999.9999998 6.06964781652e-09 -4.72630191764e-10)
(16999.9999917 4.53588515853e-07 -3.1094395042e-08)
(16999.9992761 4.00352198435e-05 -2.41973024336e-06)
(16999.948984 0.00279049845265 -4.06707311241e-05)
(16993.3160762 0.367059391608 -0.000717624346715)
(16864.8867078 6.98858072396 -0.00515616224205)
(15627.3159186 70.6099894086 -0.00630400912503)
(12087.1625223 252.102404292 -0.000866088712955)
(7709.47842816 478.657492713 0.00131728110199)
(4154.61891571 664.687905194 0.000967829835251)
(1932.4578944 784.952129894 0.000449947177556)
(879.318702764 848.419990936 -6.08199283783e-05)
(547.724317115 876.863948984 -0.000536639762218)
(473.387061034 892.51131897 -0.000963338798913)
(442.062255222 905.848450559 -0.00140144095987)
(415.800815154 918.734137487 -0.00191468187168)
(391.401392508 931.275211695 -0.00252716573884)
(367.797446308 943.471911616 -0.00324463707581)
(344.155121606 955.31944943 -0.00406686067145)
(320.475229529 966.773163862 -0.00498908519247)
(297.600440176 977.748459388 -0.00600215110617)
(275.893302211 988.181695796 -0.00709219036157)
(255.229565374 998.026917559 -0.00824052216932)
(235.266059838 1007.23255577 -0.00942349237028)
(215.461759954 1015.75672965 -0.0106134973791)
(195.833555834 1023.54016528 -0.0117805014912)
(176.667297015 1030.52288741 -0.012893341345)
(157.590311807 1036.68754749 -0.0139207806952)
(138.263871014 1042.01465261 -0.0148330538624)
(118.967886013 1046.45239198 -0.0156030964735)
(100.210098758 1049.94387643 -0.0162081914459)
(82.5926565472 1052.44060893 -0.0166303256254)
(74.3380295141 1053.68291557 -0.0168425767444)
(16999.9999999 1.73925939544e-10 -8.45958880788e-14)
(16999.9999999 1.76892346407e-10 -8.39968278203e-14)
(16999.9999999 1.79814733214e-10 -8.33240027717e-14)
(16999.9999999 1.82694438535e-10 -8.25265444337e-14)
(16999.9999999 1.85532121584e-10 -8.21898740899e-14)
(16999.9999999 1.88328649329e-10 -8.11030700693e-14)
(16999.9999999 1.91085549385e-10 -7.99976234579e-14)
(16999.9999999 1.93803982335e-10 -7.91350590429e-14)
(16999.9999999 1.96485344775e-10 -7.83654993977e-14)
(16999.9999999 1.99130888687e-10 -7.70760384951e-14)
(16999.9999999 2.01742028165e-10 -7.60104460812e-14)
(16999.9999999 2.0432081645e-10 -7.52370909892e-14)
(16999.9999999 2.06868253407e-10 -7.36490572821e-14)
(16999.9999999 2.09385444564e-10 -7.28488534661e-14)
(16999.9999999 2.11873996553e-10 -7.17855638201e-14)
(16999.9999999 2.14335542105e-10 -7.11360892922e-14)
(16999.9999999 2.16771486418e-10 -7.0086419331e-14)
(16999.9999999 2.19183080059e-10 -6.85224199815e-14)
(16999.9999999 2.21571543747e-10 -6.75257864456e-14)
(16999.9999999 2.23938243007e-10 -6.64024513151e-14)
(16999.9999999 2.26284304092e-10 -6.58907725213e-14)
(16999.9999999 2.28610771894e-10 -6.48187648505e-14)
(16999.9999999 2.30918678703e-10 -6.39814180832e-14)
(16999.9999999 2.33209139452e-10 -6.27943834081e-14)
(16999.9999999 2.35482690921e-10 -6.18675331477e-14)
(16999.9999999 2.37740507868e-10 -6.03585854387e-14)
(16999.9999999 2.39982795241e-10 -6.01476793137e-14)
(16999.9999999 2.42210165942e-10 -5.87603796427e-14)
(16999.9999999 2.4442340045e-10 -5.79780095123e-14)
(16999.9999999 2.46622818103e-10 -5.69135853466e-14)
(16999.9999999 2.48808721638e-10 -5.60094974355e-14)
(16999.9999999 2.50981620027e-10 -5.49949875275e-14)
(16999.9999999 2.5314151482e-10 -5.36694312941e-14)
(16999.9999999 2.55289072187e-10 -5.28315597138e-14)
(16999.9999999 2.57441993621e-10 -5.24925295167e-14)
(16999.9999999 2.61177917911e-10 -7.54580018494e-14)
(16999.9999999 4.02654404526e-10 -1.98716233577e-12)
(16999.9999998 1.23851739067e-08 -1.53079740648e-10)
(16999.9999872 9.93912826626e-07 -1.01195107417e-08)
(16999.9988687 8.84951540256e-05 -7.90212470106e-07)
(16999.9210414 0.0061498172082 -1.12846834415e-05)
(16989.5290141 0.816575793039 -0.0002000564421)
(16820.1973495 13.728354745 -0.00112213263725)
(15358.6392367 125.253083188 -0.00113056689422)
(11610.9360694 410.232073075 -9.38515727608e-05)
(7270.29550988 740.345824034 0.000186833313961)
(3861.74610163 999.696090907 4.46520774459e-05)
(1789.44993423 1158.14124663 -0.000126800162747)
(846.025925707 1231.73541947 -0.00031161155594)
(567.136590887 1255.1957311 -0.00051577648305)
(505.068513896 1262.24008212 -0.000744975459111)
(475.791830912 1266.89129983 -0.00101619464401)
(450.22407793 1271.35808416 -0.00134457779695)
(425.805094102 1275.80480613 -0.00173736975664)
(401.769229647 1280.2534463 -0.00219730167462)
(377.800533367 1284.69531108 -0.00272396946679)
(354.431416038 1289.06393617 -0.00331410662893)
(332.615719425 1293.27086163 -0.00396158015528)
(312.334758463 1297.28546492 -0.00465730145539)
(292.786142764 1301.14865687 -0.00538905164797)
(273.181622196 1304.87423895 -0.00614136919877)
(253.299024293 1308.43688583 -0.00689644033285)
(233.811882945 1311.75580091 -0.00763512264586)
(215.356918864 1314.76623148 -0.00833773760621)
(197.401125211 1317.49513614 -0.00898473493095)
(179.282210784 1319.97635568 -0.00955761691926)
(161.059431052 1322.18151317 -0.010039674241)
(143.152019301 1324.05670392 -0.0104170572752)
(126.295346529 1325.53016742 -0.0106794514789)
(118.31554971 1326.23817627 -0.0108111813068)
(16999.9999999 1.00519027062e-10 -2.82250429052e-14)
(16999.9999999 1.02219366629e-10 -2.82344749968e-14)
(16999.9999999 1.03894896878e-10 -2.82001515041e-14)
(16999.9999999 1.05546390376e-10 -2.81048416944e-14)
(16999.9999999 1.07174495625e-10 -2.82216952531e-14)
(16999.9999999 1.08780181576e-10 -2.85052118132e-14)
(16999.9999999 1.10364416048e-10 -2.87223149262e-14)
(16999.9999999 1.11927645412e-10 -2.84785449371e-14)
(16999.9999999 1.13470633704e-10 -2.83791578873e-14)
(16999.9999999 1.14993949715e-10 -2.85754571098e-14)
(16999.9999999 1.16498336045e-10 -2.8423993524e-14)
(16999.9999999 1.17984765569e-10 -2.84068284549e-14)
(16999.9999999 1.19454427292e-10 -2.81785128982e-14)
(16999.9999999 1.20908310134e-10 -2.79424222422e-14)
(16999.9999999 1.22346981983e-10 -2.78686207828e-14)
(16999.9999999 1.23771557624e-10 -2.76204921609e-14)
(16999.9999999 1.25182655917e-10 -2.7428431629e-14)
(16999.9999999 1.26581327846e-10 -2.71556814183e-14)
(16999.9999999 1.27968185527e-10 -2.68682968374e-14)
(16999.9999999 1.29343877041e-10 -2.59971273114e-14)
(16999.9999999 1.30709218384e-10 -2.58632951257e-14)
(16999.9999999 1.32064916907e-10 -2.52551608951e-14)
(16999.9999999 1.33411344278e-10 -2.48953807433e-14)
(16999.9999999 1.34749238104e-10 -2.45275206447e-14)
(16999.9999999 1.3607929321e-10 -2.37931576798e-14)
(16999.9999999 1.37401672088e-10 -2.34814803876e-14)
(16999.9999999 1.38717061839e-10 -2.27700851408e-14)
(16999.9999999 1.40025254806e-10 -2.2667635041e-14)
(16999.9999999 1.41326921873e-10 -2.23953099191e-14)
(16999.9999999 1.42622362631e-10 -2.22110714091e-14)
(16999.9999999 1.4391136933e-10 -2.18127679178e-14)
(16999.9999999 1.45193840244e-10 -2.12241635841e-14)
(16999.9999999 1.46470304658e-10 -2.06242766819e-14)
(16999.9999999 1.47740961585e-10 -2.0412365626e-14)
(16999.9999999 1.49032721455e-10 -1.9934946786e-14)
(16999.9999999 1.52713961936e-10 -2.42838990724e-14)
(16999.9999999 3.63159509553e-10 -3.7605524015e-13)
(16999.9999998 1.83678700802e-08 -2.82220429977e-11)
(16999.9999851 1.49770813984e-06 -1.85406995147e-09)
(16999.9986745 0.000133933467285 -1.41745244334e-07)
(16999.9075637 0.00932268459594 -1.9680243575e-06)
(16987.7856713 1.23250180653 -3.48427497396e-05)
(16801.3774659 19.8933019698 -0.00017456683765)
(15257.3145132 174.054018104 -0.000160806940551)
(11446.4180991 553.385200978 -2.68084380323e-05)
(7132.96171506 981.623458563 -2.49810914494e-05)
(3786.7135839 1312.35711586 -8.44851895627e-05)
(1778.87600293 1509.02609194 -0.000152382170186)
(879.994944461 1594.51257795 -0.000233291279707)
(618.23347348 1616.13682202 -0.000334631044751)
(560.302999966 1617.39174495 -0.000460504456415)
(532.068899293 1615.87944081 -0.000615413426689)
(506.901572644 1614.28924444 -0.00080368558885)
(482.691027 1612.83047052 -0.00102828889932)
(458.61055688 1611.58406324 -0.00129077382039)
(434.443783206 1610.57170226 -0.00159110173614)
(410.998275679 1609.71183535 -0.00192744169242)
(389.0571385 1608.92320738 -0.00229607953159)
(368.666491042 1608.18083077 -0.00269170523155)
(349.051555414 1607.56112824 -0.00310734335865)
(329.160403749 1607.16002038 -0.00353433415469)
(309.080403441 1606.96393042 -0.00396265343061)
(289.751503019 1606.8747543 -0.00438135668543)
(271.812451776 1606.83006486 -0.00477917085009)
(254.53352206 1606.89484298 -0.00514510830293)
(236.972925386 1607.17815717 -0.00546890681043)
(219.021264089 1607.68828184 -0.00574126795381)
(201.21636703 1608.36770611 -0.00595443230605)
(184.445277431 1609.11927059 -0.00610261217662)
(176.578062746 1609.44970771 -0.00617679371718)
(16999.9999999 6.5817102857e-11 -1.25618488706e-14)
(16999.9999999 6.69227650725e-11 -1.28093557459e-14)
(16999.9999999 6.80120700026e-11 -1.28439848654e-14)
(16999.9999999 6.90854845451e-11 -1.22896848342e-14)
(16999.9999999 7.01444699335e-11 -1.2650893026e-14)
(16999.9999999 7.11898267501e-11 -1.28504487325e-14)
(16999.9999999 7.22220149775e-11 -1.22424666884e-14)
(16999.9999999 7.3241869232e-11 -1.22486982972e-14)
(16999.9999999 7.42502329111e-11 -1.24988155353e-14)
(16999.9999999 7.52473125197e-11 -1.2582845196e-14)
(16999.9999999 7.6233092571e-11 -1.29371846738e-14)
(16999.9999999 7.72083408195e-11 -1.28846890572e-14)
(16999.9999999 7.81734950297e-11 -1.3345511066e-14)
(16999.9999999 7.91290714721e-11 -1.33443138556e-14)
(16999.9999999 8.00758932931e-11 -1.27784312068e-14)
(16999.9999999 8.10149454776e-11 -1.24702636283e-14)
(16999.9999999 8.19463352932e-11 -1.26276971723e-14)
(16999.9999999 8.28704784863e-11 -1.26308838377e-14)
(16999.9999999 8.37884216978e-11 -1.25803922665e-14)
(16999.9999999 8.47009977294e-11 -1.24529429245e-14)
(16999.9999999 8.56080274515e-11 -1.24051130749e-14)
(16999.9999999 8.65098347571e-11 -1.2338232095e-14)
(16999.9999999 8.74072189324e-11 -1.25275746358e-14)
(16999.9999999 8.83005597247e-11 -1.25207492496e-14)
(16999.9999999 8.91896873571e-11 -1.24526921367e-14)
(16999.9999999 9.00749744964e-11 -1.2138520409e-14)
(16999.9999999 9.09565357874e-11 -1.20305514976e-14)
(16999.9999999 9.18347335111e-11 -1.19597339182e-14)
(16999.9999999 9.27093418952e-11 -1.18228072705e-14)
(16999.9999999 9.35807106075e-11 -1.13315481938e-14)
(16999.9999999 9.44490148328e-11 -1.13602264817e-14)
(17000 9.53141070126e-11 -1.12332475387e-14)
(17000 9.61758118372e-11 -1.10449767647e-14)
(17000 9.70345369399e-11 -1.09267614542e-14)
(17000 9.79238204138e-11 -1.06280879462e-14)
(17000 1.0177204173e-10 -9.47114488929e-15)
(17000 3.61751263339e-10 5.4423479694e-14)
(16999.9999998 2.26790234724e-08 4.81797665568e-12)
(16999.999985 1.85518929667e-06 2.96119051413e-10)
(16999.9986645 0.000165369750784 2.33293643746e-08)
(16999.9071131 0.0114904632244 2.5281292911e-07)
(16987.7299466 1.51831773045 4.06125354272e-06)
(16799.7411605 24.7055152125 2.28764340751e-05)
(15248.6692084 215.138907266 2.32598228132e-05)
(11440.2847373 681.258645443 -1.40279790514e-05)
(7147.36972921 1204.58875597 -4.69464298932e-05)
(3827.77005642 1606.54771143 -7.33282310017e-05)
(1836.7388687 1843.68007136 -0.000101825854514)
(946.344547181 1944.04046277 -0.000138276302092)
(691.544047568 1965.45614553 -0.000187858612549)
(634.286707488 1962.51440498 -0.000252529245342)
(605.757545122 1956.3070373 -0.000333247419851)
(580.215470515 1950.06591106 -0.00043148031992)
(555.689530262 1944.04843966 -0.000548461838163)
(531.569440857 1938.35287659 -0.000684926905621)
(507.64278792 1933.0343294 -0.000840860019035)
(484.480004623 1928.04379872 -0.00101532387106)
(462.527647646 1923.33343105 -0.00120640918153)
(441.82114469 1918.90159835 -0.00141133266318)
(421.802906097 1914.82642536 -0.00162643457222)
(401.53333179 1911.2398614 -0.00184723443041)
(381.044424342 1908.15518389 -0.00206855088867)
(361.275540128 1905.47146059 -0.00228471945092)
(342.702913051 1903.14808567 -0.00248990802226)
(325.119378515 1901.22172969 -0.0026784850739)
(307.956755443 1899.793895 -0.00284515203059)
(290.653271205 1898.94812437 -0.00298512792287)
(273.515531469 1898.65154125 -0.00309440758712)
(257.158485544 1898.82263828 -0.00316997814963)
(249.409589125 1898.8599989 -0.00320759838979)
(16999.9999999 4.68531182992e-11 -3.7275185719e-15)
(16999.9999999 4.76373516643e-11 -3.61924545765e-15)
(16999.9999999 4.84114817551e-11 -3.45336176508e-15)
(16999.9999999 4.91750104598e-11 -3.44197423963e-15)
(16999.9999999 4.99278931189e-11 -3.4837278246e-15)
(16999.9999999 5.06709302898e-11 -4.10533068765e-15)
(16999.9999999 5.14050968573e-11 -4.20135954786e-15)
(16999.9999999 5.21306299082e-11 -3.93753463668e-15)
(16999.9999999 5.28487438357e-11 -3.7263469226e-15)
(16999.9999999 5.35603283241e-11 -3.8988539983e-15)
(16999.9999999 5.4264890629e-11 -3.9167857307e-15)
(16999.9999999 5.49630474794e-11 -4.08169578207e-15)
(16999.9999999 5.56558131544e-11 -4.25385207567e-15)
(16999.9999999 5.6343194633e-11 -4.08711231289e-15)
(16999.9999999 5.70253017989e-11 -4.3934225491e-15)
(16999.9999999 5.77026629684e-11 -3.97986434755e-15)
(16999.9999999 5.83760369435e-11 -4.20337495967e-15)
(16999.9999999 5.90450785917e-11 -4.20224317489e-15)
(16999.9999999 5.97101325735e-11 -4.3923905524e-15)
(16999.9999999 6.03723211857e-11 -4.38766885475e-15)
(17000 6.10316390657e-11 -4.40900294682e-15)
(17000 6.16883402007e-11 -4.24808091703e-15)
(17000 6.2342792424e-11 -4.67140276693e-15)
(17000 6.29953393918e-11 -4.76932323309e-15)
(17000 6.36465558971e-11 -4.83337203229e-15)
(17000 6.42961852778e-11 -4.79310883433e-15)
(17000 6.49440078766e-11 -4.83691954789e-15)
(17000 6.5590206154e-11 -4.8294433672e-15)
(17000 6.62346922163e-11 -4.45840396506e-15)
(17000 6.68775222792e-11 -4.2983538378e-15)
(17000 6.75189302671e-11 -4.40940877348e-15)
(17000 6.81590297332e-11 -4.32431708603e-15)
(17000 6.879680651e-11 -4.17032424862e-15)
(17000 6.94328653358e-11 -4.02078645759e-15)
(17000 7.01043723434e-11 -3.82279231647e-15)
(17000 7.40486835128e-11 -2.66998284602e-15)
(17000 3.61663174822e-10 8.63835273579e-14)
(16999.9999998 2.51356023106e-08 6.69564328779e-12)
(16999.9999859 2.06594394895e-06 4.21668469146e-10)
(16999.9987399 0.000184801475515 3.08572246273e-08)
(16999.9120385 0.0128921937625 4.16152714248e-07)
(16988.3891685 1.7021867353 6.98389662637e-06)
(16806.7513864 28.2768429819 3.640713687e-05)
(15288.2401811 249.253972908 3.31473219714e-05)
(11518.5438467 795.957779436 -1.09359559084e-05)
(7244.27420043 1412.89376365 -3.47434760475e-05)
(3928.67993221 1887.42542398 -4.64392096236e-05)
(1933.96180183 2167.04587223 -5.88409968013e-05)
(1040.04021195 2284.14096413 -7.53021064686e-05)
(782.256816948 2307.11920816 -9.84902056415e-05)
(724.599268494 2300.7529422 -0.000129440257287)
(695.202705599 2290.62746296 -0.000168350157078)
(668.796312081 2280.51735404 -0.000215701784299)
(643.654802048 2270.70489277 -0.000272019617371)
(619.381827626 2261.27942142 -0.000337602091326)
(595.664043625 2252.32488007 -0.000412406658759)
(572.615976072 2243.85758308 -0.000495970387086)
(550.44829603 2235.87090925 -0.000587376137725)
(529.279128525 2228.36727553 -0.00068527376334)
(508.696863372 2221.43341819 -0.000787883044931)
(487.846185395 2215.22868354 -0.000893031824849)
(466.7619915 2209.78561954 -0.000998220520763)
(446.486647953 2204.98613929 -0.00110072761844)
(427.68370383 2200.76695424 -0.00119774031208)
(410.278095749 2197.17007992 -0.00128651333522)
(393.563207709 2194.32825928 -0.00136446269681)
(376.630386858 2192.39523005 -0.00142927899543)
(359.554637825 2191.36860185 -0.00147903194937)
(343.10232677 2191.13527991 -0.00151226117647)
(335.478205968 2190.93234735 -0.00152857701937)
(16999.9999999 3.52639676541e-11 5.83229131708e-16)
(16999.9999999 3.58561578012e-11 5.00190278146e-16)
(16999.9999999 3.64404689452e-11 5.05058200368e-16)
(16999.9999999 3.70175495032e-11 3.5308570105e-16)
(16999.9999999 3.75878554006e-11 1.01247392109e-15)
(16999.9999999 3.8151395487e-11 1.01099494197e-15)
(16999.9999999 3.87084728683e-11 1.09504662328e-15)
(16999.9999999 3.92595717751e-11 9.21890830473e-16)
(16999.9999999 3.98050179634e-11 1.2222596373e-15)
(16999.9999999 4.03459202627e-11 1.17170386317e-15)
(16999.9999999 4.08820696819e-11 1.15657785213e-15)
(16999.9999999 4.14142024686e-11 1.34206890978e-15)
(17000 4.19419817037e-11 1.28584780367e-15)
(17000 4.24665563137e-11 1.34165057623e-15)
(17000 4.2988617577e-11 8.44117544628e-16)
(17000 4.35078070634e-11 4.21244696309e-16)
(17000 4.4025000932e-11 4.27244358856e-16)
(17000 4.45403774041e-11 3.89900867424e-16)
(17000 4.50538527918e-11 4.7682530722e-16)
(17000 4.55661950854e-11 2.22391967534e-16)
(17000 4.60768999793e-11 3.19376270189e-16)
(17000 4.65863195733e-11 3.99685766316e-16)
(17000 4.70949813732e-11 2.22388921744e-16)
(17000 4.7602683704e-11 -7.07967675064e-17)
(17000 4.81099329697e-11 -2.54312421016e-16)
(17000 4.8616272585e-11 -1.57355635734e-16)
(17000 4.91223779981e-11 -1.75248880074e-16)
(17000 4.96288356259e-11 -1.95229098698e-16)
(17000 5.01350968e-11 -2.23177006693e-16)
(17000 5.0640962813e-11 -4.82947549161e-16)
(17000 5.11463159457e-11 -7.43072389112e-16)
(17000 5.16511489345e-11 -8.51477440457e-16)
(17000 5.21558870992e-11 -9.67605434977e-16)
(17000 5.26602408473e-11 -9.92417630541e-16)
(17000 5.32026603127e-11 -8.15705302779e-16)
(17000 5.71666954106e-11 -4.60064943757e-16)
(17000 3.58020007922e-10 2.64247701271e-14)
(16999.9999998 2.63589991871e-08 1.96144895849e-12)
(16999.9999872 2.17288864282e-06 1.18530795246e-10)
(16999.9988529 0.000194563347675 8.27493036748e-09)
(16999.9197765 0.0136011362327 9.38337358494e-08)
(16989.3563441 1.80503612372 1.27264367862e-06)
(16818.4743884 30.7413594382 5.10481779153e-06)
(15356.1827799 276.783948026 -2.67012943787e-07)
(11648.9590489 898.190030803 -1.25877675986e-05)
(7390.96507049 1608.17341665 -1.98053691507e-05)
(4067.19642439 2157.25955142 -2.55204237978e-05)
(2059.52831638 2481.45451656 -3.18959990907e-05)
(1153.80081132 2617.06278098 -4.00378448913e-05)
(889.351172707 2642.73375663 -5.09497771602e-05)
(829.730277835 2633.59075747 -6.50339529205e-05)
(799.674656795 2619.91060299 -8.25108093144e-05)
(772.461651977 2606.34138755 -0.000103703663407)
(746.633180679 2593.15809999 -0.000128860265883)
(721.861387906 2580.44896551 -0.000158098640577)
(697.858057681 2568.29935016 -0.000191364757278)
(674.618965547 2556.75067901 -0.000228410804831)
(652.112933179 2545.8531585 -0.000268786892248)
(630.41266863 2535.63522464 -0.000311855502945)
(609.312387436 2526.17492929 -0.00035678256664)
(588.142855604 2517.63524685 -0.00040254566523)
(566.936736003 2510.06472354 -0.000447973104651)
(546.613739071 2503.35968947 -0.000491803493751)
(527.790503234 2497.44780939 -0.000532727736147)
(510.419566351 2492.3813105 -0.000569463208105)
(493.826465029 2488.3042366 -0.000600800388924)
(477.006406253 2485.41723652 -0.000625647781292)
(459.9182079 2483.75123683 -0.000643090221427)
(443.330225567 2483.1887045 -0.000652445743245)
(435.642813369 2482.81842019 -0.000656769628977)
(16999.9999999 2.762150915e-11 2.14973897435e-15)
(16999.9999999 2.80878490121e-11 2.15355580603e-15)
(16999.9999999 2.85481611472e-11 2.08434282121e-15)
(16999.9999999 2.90028945554e-11 2.02770991471e-15)
(16999.9999999 2.94529135409e-11 2.14110442722e-15)
(17000 2.98979473582e-11 2.09009967194e-15)
(17000 3.0338227938e-11 2.27579738387e-15)
(17000 3.07746022332e-11 2.04227958037e-15)
(17000 3.12074714407e-11 2.00153111372e-15)
(17000 3.16369009534e-11 1.68175152987e-15)
(17000 3.20635754001e-11 1.66173545502e-15)
(17000 3.24881605646e-11 1.87353604205e-15)
(17000 3.2910199425e-11 1.84735887455e-15)
(17000 3.33306131805e-11 1.77156952784e-15)
(17000 3.37494396339e-11 1.50390675385e-15)
(17000 3.41673101048e-11 1.56635250641e-15)
(17000 3.45848473802e-11 1.38411608702e-15)
(17000 3.50009851918e-11 9.21105894723e-16)
(17000 3.54161940932e-11 7.96011910028e-16)
(17000 3.58316989457e-11 6.23186534164e-16)
(17000 3.62479784247e-11 5.45911620046e-16)
(17000 3.66642317542e-11 4.53216002733e-16)
(17000 3.7080638443e-11 3.03470590669e-16)
(17000 3.74976519613e-11 2.4912378623e-16)
(17000 3.79153846718e-11 4.34621160534e-16)
(17000 3.83335366425e-11 1.86004386967e-16)