/*--------------------------------*- C++ -*----------------------------------*\
| =========                 |                                                 |
| \\      /  F ield         | foam-extend: Open Source CFD                    |
|  \\    /   O peration     | Version:     4.1                                |
|   \\  /    A nd           | Web:         http://www.foam-extend.org         |
|    \\/     M anipulation  |                                                 |
\*---------------------------------------------------------------------------*/
FoamFile
{
    version     2.0;
    format      ascii;
    class       volScalarField;
    location    "0.0007";
    object      eMoins;
}
// * * * * * * * * * * * * * * * * * * * * * * * * * * * * * * * * * * * * * //

dimensions      [0 0 0 0 0 0 0];

internalField   nonuniform List<scalar> 
8400
(
9.91207427388e-163
9.91207427394e-163
9.91207427399e-163
9.91207427405e-163
9.9120742741e-163
9.91207427416e-163
9.91207427421e-163
9.91207427426e-163
9.91207427431e-163
9.91207427436e-163
9.91207427441e-163
9.91207427446e-163
9.9120742745e-163
9.91207427455e-163
9.91207427459e-163
9.91207427464e-163
9.91207427469e-163
9.91207427521e-163
9.91207430266e-163
9.91207588947e-163
9.9121646758e-163
9.9171824869e-163
1.00404953797e-162
5.89898769272e-63
1.42354562305e-12
1.91546453386e-08
8.32043769233e-06
1.8034832373e-05
2.31940627687e-05
2.54536397899e-05
2.63467444319e-05
2.66621962134e-05
2.67656717835e-05
2.680732683e-05
2.68327111895e-05
2.68533939295e-05
2.68723196101e-05
2.68903763082e-05
2.69080181977e-05
2.69254992806e-05
2.69430618534e-05
2.69609244092e-05
2.69793074517e-05
2.69952511783e-05
2.70149891258e-05
2.70355642049e-05
2.70571662019e-05
2.70798725279e-05
2.71037536224e-05
2.71287275377e-05
2.71548818742e-05
2.71821972591e-05
2.7210728148e-05
2.72403187132e-05
2.72707562781e-05
2.73017496743e-05
2.73330789893e-05
2.73644673286e-05
2.73956873756e-05
2.74234835906e-05
2.74532114545e-05
2.74814266817e-05
2.75077523108e-05
2.75318151836e-05
2.75532646191e-05
2.75717951011e-05
2.75871110995e-05
2.75989351828e-05
2.76070999308e-05
2.76217810998e-05
9.91207425748e-163
9.9120742575e-163
9.91207425752e-163
9.91207425755e-163
9.91207425757e-163
9.91207425759e-163
9.91207425761e-163
9.91207425763e-163
9.91207425765e-163
9.91207425767e-163
9.91207425769e-163
9.91207425771e-163
9.91207425773e-163
9.91207425775e-163
9.91207425777e-163
9.91207425779e-163
9.91207425785e-163
9.91207426031e-163
9.9120744021e-163
9.91208262857e-163
9.91253927092e-163
9.93833122243e-163
1.03159678841e-162
9.49419278371e-30
2.03025160501e-09
1.27176422347e-06
1.28542673183e-05
2.07484326766e-05
2.45470457196e-05
2.6113696474e-05
2.66920824441e-05
2.68761607585e-05
2.69340286884e-05
2.69585018307e-05
2.69764757335e-05
2.69934350091e-05
2.70105471895e-05
2.70280890834e-05
2.7046147232e-05
2.70647779286e-05
2.70840380897e-05
2.71069203823e-05
2.71276559495e-05
2.71492649093e-05
2.71717439466e-05
2.71952295855e-05
2.72197926342e-05
2.72455053077e-05
2.72723151309e-05
2.73001365075e-05
2.73289399577e-05
2.73587588062e-05
2.73896053823e-05
2.74212792026e-05
2.74534675202e-05
2.74859065962e-05
2.75183931071e-05
2.75508022057e-05
2.7579606433e-05
2.76106725039e-05
2.76404024415e-05
2.76683794495e-05
2.76942006826e-05
2.77177003609e-05
2.77385854464e-05
2.77565640079e-05
2.77712901977e-05
2.77825472271e-05
2.77902424602e-05
2.78022371916e-05
9.91207424981e-163
9.91207424983e-163
9.91207424984e-163
9.91207424985e-163
9.91207424987e-163
9.91207424988e-163
9.91207424989e-163
9.9120742499e-163
9.91207424992e-163
9.91207424993e-163
9.91207424994e-163
9.91207424995e-163
9.91207424997e-163
9.91207424998e-163
9.91207424999e-163
9.91207425e-163
9.91207425021e-163
9.91207426143e-163
9.91207492126e-163
9.91211301043e-163
9.91427443064e-163
9.99890616489e-163
1.60410797083e-63
7.75514037873e-14
9.91063378976e-09
6.26413023456e-06
1.68496184424e-05
2.28261531079e-05
2.54751842292e-05
2.65112140539e-05
2.68631953541e-05
2.6968403545e-05
2.70030769972e-05
2.70195722622e-05
2.70334500272e-05
2.70473224078e-05
2.70616832031e-05
2.70796835705e-05
2.70956000104e-05
2.71124298451e-05
2.71301694462e-05
2.71488160971e-05
2.71684502239e-05
2.71891714685e-05
2.72110389973e-05
2.72341721998e-05
2.72585430841e-05
2.72841216476e-05
2.73107495577e-05
2.73384893925e-05
2.73673412425e-05
2.73972851337e-05
2.74281373736e-05
2.74595697716e-05
2.74913836077e-05
2.75234030839e-05
2.75554135819e-05
2.7587131641e-05
2.76181384185e-05
2.76481350667e-05
2.76766492192e-05
2.77033113774e-05
2.77279279074e-05
2.7750366485e-05
2.77703469197e-05
2.77874806508e-05
2.78013669349e-05
2.78118254876e-05
2.78189307443e-05
2.78291906771e-05
9.91207424525e-163
9.91207424526e-163
9.91207424527e-163
9.91207424528e-163
9.91207424529e-163
9.9120742453e-163
9.91207424531e-163
9.91207424532e-163
9.91207424533e-163
9.91207424533e-163
9.91207424534e-163
9.91207424535e-163
9.91207424536e-163
9.91207424537e-163
9.91207424538e-163
9.9120742454e-163
9.91207424636e-163
9.91207430217e-163
9.91207757256e-163
9.91226212046e-163
9.92289092016e-163
1.01226601423e-162
1.38749203326e-62
7.28339815254e-11
7.19139092668e-08
1.06604235407e-05
1.95863874224e-05
2.40784097945e-05
2.59635794002e-05
2.66752580628e-05
2.68994574805e-05
2.69685020606e-05
2.69927750468e-05
2.70089146861e-05
2.70236694129e-05
2.70384939267e-05
2.70537498708e-05
2.7069533669e-05
2.70889842478e-05
2.71063153781e-05
2.71245947103e-05
2.71438220937e-05
2.71640211144e-05
2.71853330512e-05
2.72078152467e-05
2.72315778367e-05
2.72565980676e-05
2.72828408819e-05
2.73101274006e-05
2.73384961738e-05
2.73679211934e-05
2.73983794386e-05
2.74296364295e-05
2.74613641966e-05
2.74933550372e-05
2.75254402132e-05
2.75574159407e-05
2.75889451907e-05
2.76196425091e-05
2.76462339037e-05
2.76743158632e-05
2.77004735751e-05
2.77246144171e-05
2.77464606248e-05
2.77657316621e-05
2.77821162322e-05
2.77954323092e-05
2.78055806825e-05
2.7812523372e-05
2.78218625663e-05
9.91207424224e-163
9.91207424224e-163
9.91207424225e-163
9.91207424226e-163
9.91207424226e-163
9.91207424227e-163
9.91207424228e-163
9.91207424229e-163
9.91207424229e-163
9.9120742423e-163
9.91207424231e-163
9.91207424231e-163
9.91207424232e-163
9.91207424233e-163
9.91207424234e-163
9.9120742424e-163
9.91207424603e-163
9.91207445606e-163
9.91208663207e-163
9.91276232938e-163
9.95075135384e-163
1.04540448589e-162
1.82813845977e-20
3.47795712247e-09
2.50885148983e-06
1.39841793179e-05
2.13570542386e-05
2.4795714857e-05
2.61942890692e-05
2.66992532854e-05
2.68558856564e-05
2.69053976094e-05
2.69287901619e-05
2.69473087306e-05
2.69650317259e-05
2.6982816912e-05
2.70009074995e-05
2.70194374837e-05
2.70385407376e-05
2.70583378986e-05
2.70789181409e-05
2.71033410683e-05
2.71258249806e-05
2.71493778112e-05
2.71739644618e-05
2.71996965841e-05
2.72266194807e-05
2.7254715717e-05
2.72838873224e-05
2.73139783859e-05
2.73450448422e-05
2.73740773421e-05
2.74067063319e-05
2.74396811187e-05
2.74727031382e-05
2.75056646191e-05
2.75382936288e-05
2.75702974767e-05
2.76013673142e-05
2.76312130774e-05
2.76594611084e-05
2.76857706878e-05
2.77099284577e-05
2.77317034357e-05
2.77508283062e-05
2.77670876709e-05
2.77802853507e-05
2.77903243414e-05
2.77971651335e-05
2.78059961307e-05
9.91207424011e-163
9.91207424012e-163
9.91207424013e-163
9.91207424013e-163
9.91207424014e-163
9.91207424014e-163
9.91207424015e-163
9.91207424015e-163
9.91207424016e-163
9.91207424017e-163
9.91207424017e-163
9.91207424018e-163
9.91207424018e-163
9.91207424019e-163
9.9120742402e-163
9.91207424036e-163
9.91207424971e-163
9.91207480245e-163
9.91210702408e-163
9.91393605521e-163
9.99397856522e-163
1.06123508566e-63
3.9573889477e-14
8.94310656227e-09
5.81977849651e-06
1.64400251067e-05
2.24956134453e-05
2.51976618555e-05
2.6263254341e-05
2.66341786819e-05
2.6749831461e-05
2.67947339317e-05
2.68210590116e-05
2.68442334477e-05
2.68667940776e-05
2.68892852138e-05
2.69118964091e-05
2.69347117672e-05
2.69578572644e-05
2.69815298435e-05
2.70058366663e-05
2.70308976992e-05
2.70568146704e-05
2.70837197076e-05
2.71116759711e-05
2.71406712455e-05
2.71705775861e-05
2.72014605781e-05
2.72333132226e-05
2.72660962287e-05
2.72996625257e-05
2.73337670275e-05
2.73683209774e-05
2.74032061677e-05
2.74381401055e-05
2.74727783814e-05
2.75068902095e-05
2.75401513414e-05
2.75722136705e-05
2.76028341853e-05
2.76318376109e-05
2.76588840191e-05
2.76836498003e-05
2.77059025139e-05
2.77225609252e-05
2.77391464586e-05
2.77525296677e-05
2.77626830557e-05
2.77696055182e-05
2.77812091664e-05
9.91207423855e-163
9.91207423856e-163
9.91207423856e-163
9.91207423857e-163
9.91207423857e-163
9.91207423858e-163
9.91207423858e-163
9.91207423859e-163
9.91207423859e-163
9.9120742386e-163
9.9120742386e-163
9.91207423861e-163
9.91207423861e-163
9.91207423862e-163
9.91207423863e-163
9.91207423916e-163
9.91207426972e-163
9.91207604848e-163
9.91217611977e-163
9.91786378361e-163
1.0051252658e-162
6.86138705722e-63
2.31653886001e-12
2.24800416852e-08
8.75756932201e-06
1.82612947429e-05
2.32514511554e-05
2.53968504976e-05
2.62322270932e-05
2.65109640399e-05
2.66026383067e-05
2.66477036772e-05
2.66792662129e-05
2.67083959597e-05
2.67368388061e-05
2.6765005436e-05
2.67929830528e-05
2.68209558021e-05
2.68491518676e-05
2.68778021648e-05
2.69069376283e-05
2.69366153994e-05
2.69668979172e-05
2.69979640517e-05
2.70298616526e-05
2.70626353542e-05
2.70963516814e-05
2.71309535445e-05
2.71662966271e-05
2.72022876261e-05
2.7238917929e-05
2.72760612488e-05
2.73134420204e-05
2.73507699262e-05
2.73880275537e-05
2.74219494752e-05
2.74581197818e-05
2.74933017489e-05
2.75271550601e-05
2.75592700448e-05
2.75894824203e-05
2.76175761632e-05
2.76433194473e-05
2.76663992041e-05
2.76866019944e-05
2.77036431877e-05
2.77174640488e-05
2.77279515381e-05
2.77350616987e-05
2.77434586267e-05
9.91207423737e-163
9.91207423737e-163
9.91207423738e-163
9.91207423738e-163
9.91207423739e-163
9.91207423739e-163
9.91207423739e-163
9.9120742374e-163
9.9120742374e-163
9.91207423741e-163
9.91207423741e-163
9.91207423741e-163
9.91207423742e-163
9.91207423742e-163
9.91207423745e-163
9.91207423895e-163
9.91207432632e-163
9.91207940867e-163
9.91236301366e-163
9.92844189431e-163
1.02001301308e-162
1.28590607748e-39
6.3888762702e-10
2.5568320263e-07
1.12942900682e-05
1.9626551011e-05
2.37472786554e-05
2.5476640039e-05
2.61276511701e-05
2.6345532399e-05
2.64258121082e-05
2.64729571387e-05
2.65099766024e-05
2.65452500794e-05
2.65799533363e-05
2.66143312975e-05
2.66484145862e-05
2.66823659063e-05
2.67164059416e-05
2.67506884251e-05
2.67852577449e-05
2.68200312518e-05
2.68553340949e-05
2.68914122134e-05
2.69281650892e-05
2.69654672442e-05
2.70034802147e-05
2.70422028876e-05
2.7078646851e-05
2.71185939961e-05
2.71589171139e-05
2.71994268463e-05
2.7240052907e-05
2.72806009013e-05
2.73207384918e-05
2.73601246439e-05
2.73985942112e-05
2.74358478411e-05
2.74716602981e-05
2.75057878901e-05
2.75377865932e-05
2.75672712238e-05
2.75941075859e-05
2.76182126178e-05
2.76364279719e-05
2.76543556932e-05
2.76688744675e-05
2.76798768186e-05
2.76872859804e-05
2.76956233105e-05
9.91207423644e-163
9.91207423645e-163
9.91207423645e-163
9.91207423645e-163
9.91207423646e-163
9.91207423646e-163
9.91207423647e-163
9.91207423647e-163
9.91207423647e-163
9.91207423648e-163
9.91207423648e-163
9.91207423648e-163
9.91207423649e-163
9.91207423649e-163
9.91207423656e-163
9.91207424026e-163
9.91207445434e-163
9.91208680668e-163
9.91276983447e-163
9.95095347227e-163
1.04582889946e-162
1.66312351401e-20
3.35345361404e-09
2.25484556562e-06
1.34407474379e-05
2.06635746682e-05
2.40576452458e-05
2.54580765391e-05
2.59726247833e-05
2.61507706425e-05
2.62227714857e-05
2.62715606921e-05
2.63148636339e-05
2.635967017e-05
2.64009000066e-05
2.64416062044e-05
2.64819785854e-05
2.6522169446e-05
2.65593883915e-05
2.65997552415e-05
2.66402222822e-05
2.66808358575e-05
2.67218579876e-05
2.6763402622e-05
2.68053252119e-05
2.68476116856e-05
2.68904514697e-05
2.69337930276e-05
2.69776808556e-05
2.70218971735e-05
2.70661118024e-05
2.71104591465e-05
2.71548153585e-05
2.71987626061e-05
2.7242128936e-05
2.72816450703e-05
2.73229145076e-05
2.73627559489e-05
2.74009148981e-05
2.74371562925e-05
2.74711015668e-05
2.75023599612e-05
2.75307487737e-05
2.75560857587e-05
2.75782522606e-05
2.75970262225e-05
2.76122722714e-05
2.76238703478e-05
2.76317466739e-05
2.76402470403e-05
9.9120742357e-163
9.91207423571e-163
9.91207423571e-163
9.91207423571e-163
9.91207423572e-163
9.91207423572e-163
9.91207423572e-163
9.91207423573e-163
9.91207423573e-163
9.91207423573e-163
9.91207423574e-163
9.91207423574e-163
9.91207423574e-163
9.91207423575e-163
9.91207423589e-163
9.91207424356e-163
9.91207468012e-163
9.91209947863e-163
9.9134601921e-163
9.98646466197e-163
2.38337831156e-64
9.0864199324e-15
7.17489264968e-09
4.73559018215e-06
1.52766591798e-05
2.14354658734e-05
2.42283365962e-05
2.53586962539e-05
2.5773011936e-05
2.59218367343e-05
2.59936324952e-05
2.60488548784e-05
2.60997433111e-05
2.61491478382e-05
2.61977144637e-05
2.624572127e-05
2.6293116542e-05
2.6340091203e-05
2.63869456931e-05
2.643361992e-05
2.64801970971e-05
2.6526864935e-05
2.65737586457e-05
2.66210573452e-05
2.66685774723e-05
2.67163327561e-05
2.67645790282e-05
2.68131163404e-05
2.68618378361e-05
2.69076762489e-05
2.69563853003e-05
2.70048777389e-05
2.70531143121e-05
2.71008785798e-05
2.71476555046e-05
2.71933387903e-05
2.72377516957e-05
2.72804463757e-05
2.73211369173e-05
2.73596701033e-05
2.73926962883e-05
2.74259914558e-05
2.74560801423e-05
2.7482898272e-05
2.75062478537e-05
2.75259682124e-05
2.75419455936e-05
2.75541052229e-05
2.75624079579e-05
2.7571082971e-05
9.9120742351e-163
9.91207423511e-163
9.91207423511e-163
9.91207423511e-163
9.91207423512e-163
9.91207423512e-163
9.91207423512e-163
9.91207423512e-163
9.91207423513e-163
9.91207423513e-163
9.91207423513e-163
9.91207423514e-163
9.91207423514e-163
9.91207423515e-163
9.91207423554e-163
9.91207425838e-163
9.91207558073e-163
9.91214998579e-163
9.91634344597e-163
1.00315305187e-162
4.54532974347e-63
6.85276162587e-13
1.49039031073e-08
7.26093308804e-06
1.6815654861e-05
2.20015949878e-05
2.42897021852e-05
2.52008642358e-05
2.55353132514e-05
2.56657976979e-05
2.57410251123e-05
2.58039879917e-05
2.5863614019e-05
2.59214622482e-05
2.59781134169e-05
2.60339996471e-05
2.60888594582e-05
2.61431106627e-05
2.61969268249e-05
2.62506006181e-05
2.63039258963e-05
2.63571001906e-05
2.64104677628e-05
2.64606956478e-05
2.6514273713e-05
2.65677519332e-05
2.66215161284e-05
2.66753491437e-05
2.67290264146e-05
2.67826950803e-05
2.68362219092e-05
2.68894293138e-05
2.69419227409e-05
2.69904717414e-05
2.70411918497e-05
2.70903315493e-05
2.71378631225e-05
2.71834935613e-05
2.72270571756e-05
2.72681813853e-05
2.73063703213e-05
2.73414701868e-05
2.73733830957e-05
2.74018739524e-05
2.74268013482e-05
2.74443833763e-05
2.74614296782e-05
2.74742897782e-05
2.74830082862e-05
2.74916697638e-05
9.91207423461e-163
9.91207423461e-163
9.91207423461e-163
9.91207423461e-163
9.91207423462e-163
9.91207423462e-163
9.91207423462e-163
9.91207423462e-163
9.91207423463e-163
9.91207423463e-163
9.91207423463e-163
9.91207423464e-163
9.91207423464e-163
9.91207423466e-163
9.91207423569e-163
9.91207429522e-163
9.91207773316e-163
9.91226926768e-163
9.9231063179e-163
1.01269854522e-162
1.34707315611e-62
5.04358134991e-11
5.18357150693e-08
9.65921905597e-06
1.81123630484e-05
2.24182753847e-05
2.42637513417e-05
2.49922084544e-05
2.5265492102e-05
2.53863128036e-05
2.54674707484e-05
2.55395162588e-05
2.56082902155e-05
2.56752619132e-05
2.57405782012e-05
2.58045755107e-05
2.58677465176e-05
2.59299669783e-05
2.598845465e-05
2.60493394648e-05
2.61099085784e-05
2.61699956321e-05
2.62298823806e-05
2.62897168205e-05
2.63492664041e-05
2.6408675711e-05
2.6468214006e-05
2.65245354582e-05
2.65838207179e-05
2.66426342074e-05
2.67009243213e-05
2.67586082366e-05
2.6815676018e-05
2.68715078816e-05
2.69260031677e-05
2.69790070156e-05
2.70269706471e-05
2.70759746282e-05
2.71223549129e-05
2.71659708198e-05
2.72065272333e-05
2.72438827349e-05
2.72777439485e-05
2.73078314378e-05
2.73339613798e-05
2.73560150326e-05
2.73738408292e-05
2.73873386413e-05
2.73965326562e-05
2.74053466321e-05
9.91207423419e-163
9.91207423419e-163
9.91207423419e-163
9.9120742342e-163
9.9120742342e-163
9.9120742342e-163
9.9120742342e-163
9.91207423421e-163
9.91207423421e-163
9.91207423421e-163
9.91207423421e-163
9.91207423422e-163
9.91207423422e-163
9.91207423427e-163
9.91207423725e-163
9.91207440804e-163
9.91208419678e-163
9.91262256434e-163
9.9425483483e-163
1.03689174071e-162
1.68339515583e-29
2.23370780861e-09
1.11083295133e-06
1.18987822743e-05
1.91691104356e-05
2.26802329111e-05
2.41687516635e-05
2.47492350566e-05
2.49723596308e-05
2.50886862933e-05
2.51764583976e-05
2.525752126e-05
2.53357120128e-05
2.5411908602e-05
2.54836164677e-05
2.55567908207e-05
2.56284400543e-05
2.56989491672e-05
2.57685104954e-05
2.58370529775e-05
2.59051147275e-05
2.59723731e-05
2.60362305155e-05
2.61026866203e-05
2.61688235717e-05
2.62347113522e-05
2.63000901958e-05
2.63651202347e-05
2.64298577619e-05
2.64940561169e-05
2.65543321132e-05
2.66170967768e-05
2.66784613414e-05
2.67385525914e-05
2.67971683023e-05
2.68539951006e-05
2.6908590458e-05
2.69607745341e-05
2.70070565876e-05
2.70535894742e-05
2.70968036221e-05
2.71365136087e-05
2.71723148688e-05
2.72040026617e-05
2.72315313082e-05
2.72547523965e-05
2.72735571977e-05
2.72878525408e-05
2.72975860365e-05
2.73065337971e-05
9.91207423383e-163
9.91207423384e-163
9.91207423384e-163
9.91207423384e-163
9.91207423384e-163
9.91207423385e-163
9.91207423385e-163
9.91207423385e-163
9.91207423385e-163
9.91207423385e-163
9.91207423386e-163
9.91207423386e-163
9.91207423386e-163
9.91207423399e-163
9.91207424129e-163
9.91207465362e-163
9.91209789011e-163
9.91335456304e-163
9.98082788937e-163
1.07803075901e-162
1.57136712011e-15
5.8713409942e-09
3.64420670538e-06
1.38688671599e-05
1.99856022622e-05
2.28167847649e-05
2.39974261436e-05
2.44634860837e-05
2.46543837391e-05
2.4772313371e-05
2.48687722449e-05
2.49570749864e-05
2.50452149826e-05
2.51313088062e-05
2.52152089397e-05
2.52975103302e-05
2.53780116248e-05
2.54571091734e-05
2.55319287076e-05
2.56089507371e-05
2.56847274057e-05
2.5759827554e-05
2.58338994974e-05
2.59072250832e-05
2.59802018495e-05
2.60492841214e-05
2.61211128407e-05
2.61922470074e-05
2.62624912206e-05
2.63319967367e-05
2.64007431214e-05
2.64681637917e-05
2.65311096632e-05
2.65958505425e-05
2.66586447686e-05
2.6719191173e-05
2.67772851842e-05
2.68328795793e-05
2.68855629701e-05
2.69313668005e-05
2.69772796952e-05
2.70193194266e-05
2.70571169391e-05
2.70906474074e-05
2.711975746e-05
2.71443015836e-05
2.71641566011e-05
2.71792395944e-05
2.71895244295e-05
2.71986410638e-05
9.91207423353e-163
9.91207423353e-163
9.91207423353e-163
9.91207423354e-163
9.91207423354e-163
9.91207423354e-163
9.91207423354e-163
9.91207423354e-163
9.91207423355e-163
9.91207423355e-163
9.91207423355e-163
9.91207423355e-163
9.91207423356e-163
9.91207423397e-163
9.91207425747e-163
9.91207559947e-163
9.91215021652e-163
9.91629274609e-163
1.00328880744e-162
4.23458464588e-63
5.16450858989e-13
1.3122634207e-08
6.37766124264e-06
1.55433896186e-05
2.0579592665e-05
2.28329931383e-05
2.37686759304e-05
2.41405949957e-05
2.43157228243e-05
2.44358876781e-05
2.4543044677e-05
2.46449241447e-05
2.47438714834e-05
2.4840038466e-05
2.49339991448e-05
2.50226118467e-05
2.51124859523e-05
2.52005737997e-05
2.5286871268e-05
2.53720193273e-05
2.54558148225e-05
2.5535577092e-05
2.56172370554e-05
2.56981868407e-05
2.57780788843e-05
2.58570847664e-05
2.59321597827e-05
2.6009335103e-05
2.60854689998e-05
2.61607233505e-05
2.6234547136e-05
2.63069495124e-05
2.63780080938e-05
2.64437846943e-05
2.65108909074e-05
2.65753457716e-05
2.66371059457e-05
2.66959302533e-05
2.67515862211e-05
2.68038816239e-05
2.68486877828e-05
2.68928983981e-05
2.6932714679e-05
2.69680763295e-05
2.69988567302e-05
2.70248005285e-05
2.70457521395e-05
2.70615666316e-05
2.70723336343e-05
2.70815216814e-05
9.91207423326e-163
9.91207423327e-163
9.91207423327e-163
9.91207423327e-163
9.91207423327e-163
9.91207423327e-163
9.91207423328e-163
9.91207423328e-163
9.91207423328e-163
9.91207423328e-163
9.91207423328e-163
9.91207423329e-163
9.91207423331e-163
9.91207423461e-163
9.91207430838e-163
9.912078518e-163
9.91231051515e-163
9.92526727657e-163
1.01584999352e-162
1.312369611e-40
1.04799517079e-10
5.07770848569e-08
9.07313692552e-06
1.69663534604e-05
2.09966037767e-05
2.27585057471e-05
2.34866903638e-05
2.37951425726e-05
2.39583877149e-05
2.40870028435e-05
2.42058051887e-05
2.43197956665e-05
2.44270081244e-05
2.45341408285e-05
2.46381656676e-05
2.47397594002e-05
2.4839141301e-05
2.4933278848e-05
2.50285151676e-05
2.51222208653e-05
2.52142851975e-05
2.53049982495e-05
2.53909640857e-05
2.54793196924e-05
2.55662904073e-05
2.56519918151e-05
2.57370281796e-05
2.58172434371e-05
2.58996194113e-05
2.598049737e-05
2.60599629512e-05
2.61374271122e-05
2.62131058769e-05
2.62833904035e-05
2.63545745236e-05
2.64231648356e-05
2.64886307267e-05
2.65508135513e-05
2.66095178345e-05
2.66645120263e-05
2.67119870738e-05
2.67586209013e-05
2.68004510408e-05
2.68375526421e-05
2.68697364351e-05
2.68968574321e-05
2.69187664461e-05
2.69353844477e-05
2.69467080068e-05
2.69560212238e-05
9.91207423303e-163
9.91207423303e-163
9.91207423304e-163
9.91207423304e-163
9.91207423304e-163
9.91207423304e-163
9.91207423304e-163
9.91207423305e-163
9.91207423305e-163
9.91207423305e-163
9.91207423305e-163
9.91207423305e-163
9.91207423314e-163
9.91207423763e-163
9.91207449072e-163
9.91208871573e-163
9.91285649691e-163
9.95437774483e-163
1.05006911946e-162
1.6794247224e-20
3.08045215109e-09
1.46675734273e-06
1.1525030425e-05
1.80788946771e-05
2.12452628323e-05
2.26064060294e-05
2.31738100388e-05
2.34292007647e-05
2.3589986366e-05
2.37277278179e-05
2.38578139028e-05
2.39804037637e-05
2.41019458381e-05
2.42202397057e-05
2.43320867914e-05
2.44442679636e-05
2.45533258804e-05
2.46600285295e-05
2.47642993899e-05
2.48635340264e-05
2.49638845589e-05
2.5062748058e-05
2.51597466429e-05
2.52522222911e-05
2.53464125696e-05
2.54390366095e-05
2.55305189157e-05
2.56203104728e-05
2.57053268888e-05
2.57919741291e-05
2.58768829368e-05
2.59598087145e-05
2.60405050291e-05
2.61152161949e-05
2.61908021296e-05
2.62632380515e-05
2.63322756494e-05
2.63978372927e-05
2.6459664514e-05
2.65176472058e-05
2.65674183457e-05
2.66163613789e-05
2.6660236787e-05
2.66991160809e-05
2.67328366666e-05
2.6761211643e-05
2.67841195682e-05
2.68014993693e-05
2.68133798193e-05
2.68228548753e-05
9.91207423283e-163
9.91207423283e-163
9.91207423283e-163
9.91207423283e-163
9.91207423283e-163
9.91207423284e-163
9.91207423284e-163
9.91207423284e-163
9.91207423284e-163
9.91207423284e-163
9.91207423285e-163
9.91207423285e-163
9.91207423311e-163
9.91207424765e-163
9.91207507648e-163
9.91212146766e-163
9.9146656159e-163
1.00103451859e-162
1.72785790563e-63
6.52129126676e-14
8.50673720327e-09
4.44809134287e-06
1.36297247893e-05
1.888967646e-05
2.13289690049e-05
2.23733747961e-05
2.28192061156e-05
2.30456282932e-05
2.32105111167e-05
2.3356423546e-05
2.34986964144e-05
2.36358244231e-05
2.37660565159e-05
2.38952413933e-05
2.40208129131e-05
2.41431261102e-05
2.42593101544e-05
2.43756552322e-05
2.44894070518e-05
2.46007107826e-05
2.47065066361e-05
2.48134433155e-05
2.49182550828e-05
2.50214847514e-05
2.51195490932e-05
2.52190734238e-05
2.53169144312e-05
2.54132825098e-05
2.55040143109e-05
2.55965082904e-05
2.56867355878e-05
2.57746177604e-05
2.58601104583e-05
2.59396123731e-05
2.60193828109e-05
2.60958147734e-05
2.61687014511e-05
2.62377255403e-05
2.63028690443e-05
2.63597734494e-05
2.64157364434e-05
2.6466636466e-05
2.65125857763e-05
2.65533642521e-05
2.65886234681e-05
2.66182075047e-05
2.66421053481e-05
2.66602687755e-05
2.66727272361e-05
2.66823746626e-05
9.91207423265e-163
9.91207423265e-163
9.91207423265e-163
9.91207423265e-163
9.91207423265e-163
9.91207423265e-163
9.91207423266e-163
9.91207423266e-163
9.91207423266e-163
9.91207423266e-163
9.91207423266e-163
9.91207423268e-163
9.91207423376e-163
9.91207429408e-163
9.91207766051e-163
9.91225936281e-163
9.92213754849e-163
1.01152755209e-162
1.0952694967e-62
1.02450509509e-11
2.68883983708e-08
7.54157797875e-06
1.53601119977e-05
1.94380114645e-05
2.12795660319e-05
2.20736188176e-05
2.24328234236e-05
2.26446167245e-05
2.28184457454e-05
2.29800474958e-05
2.31352534157e-05
2.32819338902e-05
2.34266596493e-05
2.35641190236e-05
2.3700367818e-05
2.3833072614e-05
2.39620797129e-05
2.40848737401e-05
2.42079887914e-05
2.43280278988e-05
2.44422666258e-05
2.4557721469e-05
2.46705107937e-05
2.47813145725e-05
2.48865573675e-05
2.49932171293e-05
2.50976715845e-05
2.51999831064e-05
2.52969193086e-05
2.53948797954e-05
2.54903856193e-05
2.5583446416e-05
2.56700108302e-05
2.57572977755e-05
2.58413342309e-05
2.59216103758e-05
2.59980697657e-05
2.60705027285e-05
2.61347641702e-05
2.61983420335e-05
2.62566883894e-05
2.63099296038e-05
2.63578896383e-05
2.64003624328e-05
2.64371212273e-05
2.64680347971e-05
2.64891755386e-05
2.65082016929e-05
2.65212506085e-05
2.65310747391e-05
9.91207423248e-163
9.91207423248e-163
9.91207423249e-163
9.91207423249e-163
9.91207423249e-163
9.91207423249e-163
9.91207423249e-163
9.91207423249e-163
9.9120742325e-163
9.9120742325e-163
9.9120742325e-163
9.91207423259e-163
9.91207423725e-163
9.91207449663e-163
9.91208886879e-163
9.91285505355e-163
9.95365497125e-163
1.04957632584e-162
9.85122491317e-21
2.70712005908e-09
9.48600887534e-07
1.03850545319e-05
1.66869120611e-05
1.97669412496e-05
2.11293912598e-05
2.1730449943e-05
2.20316408e-05
2.22397121522e-05
2.24236671115e-05
2.25951556176e-05
2.27630597274e-05
2.29223164159e-05
2.30793232897e-05
2.3231352044e-05
2.33755310778e-05
2.35185148721e-05
2.36574049741e-05
2.37897341179e-05
2.39217634986e-05
2.40508655765e-05
2.41735027605e-05
2.42967636604e-05
2.44176277998e-05
2.45358143231e-05
2.46483723427e-05
2.47618586343e-05
2.48730152064e-05
2.49782037003e-05
2.50846046875e-05
2.5188079158e-05
2.52887842546e-05
2.53867900387e-05
2.54779392887e-05
2.55694357914e-05
2.56572858831e-05
2.57416229279e-05
2.58177616424e-05
2.58934958654e-05
2.59643826063e-05
2.60302962161e-05
2.60910340516e-05
2.61463717216e-05
2.61962540646e-05
2.62363124796e-05
2.62747001249e-05
2.63069139357e-05
2.63328990887e-05
2.63526676968e-05
2.63662895199e-05
2.63762424051e-05
9.91207423234e-163
9.91207423234e-163
9.91207423234e-163
9.91207423234e-163
9.91207423234e-163
9.91207423234e-163
9.91207423234e-163
9.91207423235e-163
9.91207423235e-163
9.91207423235e-163
9.91207423236e-163
9.91207423272e-163
9.91207425317e-163
9.9120753933e-163
9.91213759961e-163
9.91548525744e-163
1.00247854257e-162
2.63758363673e-63
1.37361569219e-13
9.07811169868e-09
4.24436430376e-06
1.27505791751e-05
1.75996349893e-05
1.98783883923e-05
2.08871095738e-05
2.13511269902e-05
2.16191951429e-05
2.18312875973e-05
2.20241514692e-05
2.22115918261e-05
2.23890900189e-05
2.25632558479e-05
2.27289684916e-05
2.28919946104e-05
2.30502849437e-05
2.3200722315e-05
2.33498395069e-05
2.34918215281e-05
2.36328268894e-05
2.37706043509e-05
2.39014337397e-05
2.40328164028e-05
2.41610852117e-05
2.42832931529e-05
2.44060991634e-05
2.4526232974e-05
2.46438942373e-05
2.47548976103e-05
2.48671145296e-05
2.49763531626e-05
2.50824829527e-05
2.51815643701e-05
2.52809937994e-05
2.53768130376e-05
2.54686690871e-05
2.55522318938e-05
2.56358471736e-05
2.57144595862e-05
2.57881517424e-05
2.58566234822e-05
2.59197295324e-05
2.59730822778e-05
2.60247523999e-05
2.60703832866e-05
2.61099287449e-05
2.61431683698e-05
2.61700638781e-05
2.61905852688e-05
2.62047807452e-05
2.62148599793e-05
9.9120742322e-163
9.9120742322e-163
9.91207423221e-163
9.91207423221e-163
9.91207423221e-163
9.91207423221e-163
9.91207423221e-163
9.91207423221e-163
9.91207423221e-163
9.91207423222e-163
9.91207423225e-163
9.91207423414e-163
9.91207433863e-163
9.91208011884e-163
9.91238921961e-163
9.92900087782e-163
1.02108851593e-162
7.68743866708e-40
1.9244772056e-10
4.1876167287e-08
7.61839189246e-06
1.45884418023e-05
1.81835913987e-05
1.98203199671e-05
2.05667365243e-05
2.09428797942e-05
2.11975406063e-05
2.14189513772e-05
2.16247969654e-05
2.18251522486e-05
2.20150174746e-05
2.22014715127e-05
2.23782115546e-05
2.25523492636e-05
2.27210216376e-05
2.28814482664e-05
2.30402314438e-05
2.31912889092e-05
2.33417569054e-05
2.34881249325e-05
2.36274793668e-05
2.37665708343e-05
2.39025605548e-05
2.40316312967e-05
2.4161255002e-05
2.4287928174e-05
2.44079432363e-05
2.45285868049e-05
2.46460373987e-05
2.4760421626e-05
2.48676283991e-05
2.49753919259e-05
2.50793508081e-05
2.51792269847e-05
2.52708436731e-05
2.53621690714e-05
2.54486932612e-05
2.55302333455e-05
2.56066754298e-05
2.56734356908e-05
2.573880086e-05
2.57981641467e-05
2.58514287474e-05
2.58984928511e-05
2.59392510292e-05
2.59736933409e-05
2.59971745189e-05
2.60185653649e-05
2.60333368731e-05
2.60435706829e-05
9.91207423208e-163
9.91207423208e-163
9.91207423209e-163
9.91207423209e-163
9.91207423209e-163
9.91207423209e-163
9.91207423209e-163
9.91207423209e-163
9.91207423209e-163
9.9120742321e-163
9.91207423228e-163
9.91207424209e-163
9.91207477182e-163
9.91210320716e-163
9.91357271758e-163
9.98798113693e-163
1.08565062326e-162
4.31508053664e-16
4.87462517353e-09
1.95634666651e-06
1.0570458246e-05
1.59008256911e-05
1.84745646637e-05
1.96473192695e-05
2.02024650914e-05
2.052517934e-05
2.07790939422e-05
2.10089201785e-05
2.12311480812e-05
2.14413518135e-05
2.16465689948e-05
2.18412430659e-05
2.2029148501e-05
2.22140754749e-05
2.23928309203e-05
2.25629997806e-05
2.27311461715e-05
2.28911349854e-05
2.30500206723e-05
2.32011820967e-05
2.3351827771e-05
2.349872169e-05
2.36383454921e-05
2.3778522834e-05
2.39148747767e-05
2.40438323642e-05
2.41735054876e-05
2.42996904332e-05
2.44186322241e-05
2.45380362401e-05
2.46537350384e-05
2.47657972426e-05
2.48696447346e-05
2.49735927948e-05
2.50727870487e-05
2.5167382038e-05
2.525253083e-05
2.5337039142e-05
2.54160197134e-05
2.54893250716e-05
2.55567110556e-05
2.56180691908e-05