/*--------------------------------*- C++ -*----------------------------------*\
| =========                 |                                                 |
| \\      /  F ield         | foam-extend: Open Source CFD                    |
|  \\    /   O peration     | Version:     4.1                                |
|   \\  /    A nd           | Web:         http://www.foam-extend.org         |
|    \\/     M anipulation  |                                                 |
\*---------------------------------------------------------------------------*/
FoamFile
{
    version     2.0;
    format      ascii;
    class       volScalarField;
    location    "0.0007";
    object      Mach;
}
// * * * * * * * * * * * * * * * * * * * * * * * * * * * * * * * * * * * * * //

dimensions      [0 0 0 0 0 0 0];

internalField   nonuniform List<scalar> 
8400
(
56.1971337695
56.1971337695
56.1971337696
56.1971337696
56.1971337696
56.1971337697
56.1971337697
56.1971337697
56.1971337698
56.1971337698
56.1971337698
56.1971337699
56.1971337699
56.1971337699
56.1971337699
56.19713377
56.19713377
56.19713377
56.197133769
56.1971337089
56.1971302749
56.1969376403
56.188290932
45.8452442388
16.3609053476
7.608720383
3.43664430129
1.83400401056
0.976182568196
0.535463200065
0.336313013146
0.263213888594
0.240040324612
0.231364309845
0.226061986722
0.221352817158
0.216617912694
0.211745000375
0.206734647799
0.201611768197
0.19640543285
0.191144967826
0.185874355416
0.180594437982
0.175310995996
0.170093641298
0.164950886909
0.15990147551
0.154966089307
0.150167860293
0.145529810336
0.141069425576
0.13679740244
0.132723734964
0.128864213693
0.125244085376
0.121885994451
0.118799961536
0.115994685635
0.113450014268
0.111165749819
0.109173937204
0.107464378646
0.106025472997
0.104840482737
0.103892653309
0.10316612963
0.102643947861
0.10230753912
0.102229234042
56.1971337772
56.1971337772
56.1971337772
56.1971337772
56.1971337773
56.1971337773
56.1971337773
56.1971337773
56.1971337773
56.1971337773
56.1971337773
56.1971337773
56.1971337773
56.1971337773
56.1971337773
56.1971337773
56.1971337774
56.1971337773
56.1971337719
56.1971334603
56.1971156815
56.1961236999
56.1554085384
26.8139721895
11.1406992295
5.10060455914
2.66977068779
1.41355634012
0.745848871034
0.417303545853
0.281475976935
0.236276936434
0.221649960287
0.214919128658
0.210037238555
0.20564867045
0.201459005947
0.197403759017
0.193469285758
0.18965246036
0.185944601266
0.182371849417
0.178957471079
0.175666360532
0.172516751754
0.169514751157
0.166664763782
0.163973416399
0.161450036157
0.159102367936
0.156932560174
0.154934790633
0.153102171613
0.151434644306
0.149936685955
0.148612067713
0.147455516789
0.146459951652
0.145603162945
0.144861064229
0.144251997614
0.143760999627
0.143372456464
0.143067325043
0.142829555781
0.142648057747
0.14251440645
0.142417883992
0.142346568846
0.142330455009
56.1971337817
56.1971337817
56.1971337817
56.1971337817
56.1971337817
56.1971337817
56.1971337817
56.1971337817
56.1971337817
56.1971337817
56.1971337817
56.1971337817
56.1971337817
56.1971337817
56.1971337817
56.1971337817
56.1971337817
56.1971337813
56.1971337564
56.1971323037
56.1970490924
56.1928355772
53.0344285775
18.2059888266
8.62322464541
3.84567168927
2.04093459778
1.07630947664
0.579045535416
0.354496345894
0.273929461941
0.249280410095
0.240276781148
0.235030123851
0.230769100838
0.22692349358
0.223362841315
0.220070764573
0.217045555964
0.214229015489
0.21162123198
0.20921941596
0.20701436864
0.204996691561
0.203156697212
0.201484927683
0.199974190785
0.198619161154
0.197416891836
0.196361266848
0.195440409215
0.194640358758
0.193952064297
0.193372080968
0.192897864112
0.1925210218
0.19222728138
0.192002135711
0.191834815342
0.19172174714
0.19165713105
0.191633489545
0.191635738665
0.191647502236
0.191659277956
0.191668835241
0.191674082181
0.19166808222
0.191642952966
0.191617511765
56.1971337846
56.1971337846
56.1971337846
56.1971337846
56.1971337846
56.1971337846
56.1971337846
56.1971337846
56.1971337846
56.1971337846
56.1971337846
56.1971337845
56.1971337845
56.1971337845
56.1971337845
56.1971337845
56.1971337845
56.1971337824
56.1971336591
56.1971265276
56.1967212605
56.1791209836
36.1219007584
13.0428826011
6.40358674356
3.04171116223
1.6176449321
0.864473554262
0.498165921343
0.352642032104
0.306757871354
0.292206943981
0.285385135488
0.280414009829
0.276073112298
0.272111825509
0.268469086261
0.265111395401
0.262022819175
0.259213711483
0.256635331709
0.254281182401
0.252140432622
0.250199325505
0.248444800053
0.246863752478
0.245445432348
0.244180614123
0.243062062471
0.242080251427
0.241221995568
0.240473920053
0.239825476513
0.239272093693
0.238808225857
0.238423622655
0.238105760143
0.23784462203
0.237636370612
0.237482424036
0.237351189662
0.237251221474
0.237169485177
0.237098621268
0.237034357035
0.236973648167
0.236911897442
0.236843725327
0.236764334804
0.236696887269
56.1971337865
56.1971337865
56.1971337865
56.1971337865
56.1971337865
56.1971337865
56.1971337865
56.1971337865
56.1971337865
56.1971337865
56.1971337865
56.1971337865
56.1971337865
56.1971337865
56.1971337865
56.1971337865
56.1971337864
56.1971337784
56.1971333176
56.1971070437
56.1956434507
56.1367876292
23.1201310567
10.4417483527
4.7197972389
2.49883012981
1.33976255827
0.74523305882
0.480733299265
0.388595849531
0.360707785476
0.350131672064
0.34361395288
0.338176922252
0.333222157271
0.328621919543
0.324338334047
0.320351106432
0.316644913848
0.313202807733
0.310004988322
0.307035715119
0.304313205157
0.301794718647
0.299473994929
0.297339280028
0.295379041074
0.293584362178
0.291947311641
0.290458091488
0.289107847108
0.28789192093
0.286773326683
0.285770178425
0.284870825411
0.284065267708
0.28334361081
0.282698939773
0.282126174682
0.281619010593
0.281171569898
0.280774939535
0.280422473524
0.280109751279
0.279833581596
0.279589040103
0.279373229433
0.279182154217
0.279012473913
0.278891323944
56.1971337879
56.1971337879
56.1971337879
56.1971337879
56.1971337879
56.1971337879
56.1971337879
56.1971337879
56.1971337879
56.1971337879
56.1971337879
56.1971337879
56.1971337879
56.1971337879
56.1971337879
56.1971337879
56.1971337875
56.1971337668
56.1971325466
56.1970622459
56.1933815901
54.0709248203
18.4986592679
8.80984368157
3.94238212837
2.11673663356
1.15908493069
0.691006340949
0.503416235252
0.443543972683
0.424137376634
0.414732310033
0.407717604926
0.401442119904
0.395583814238
0.39006915591
0.384871452253
0.379973418282
0.375360745582
0.371020004033
0.366938576402
0.363105020063
0.359505691372
0.356128631222
0.352963212297
0.349999989445
0.347230212925
0.34464577752
0.342237763351
0.339996662706
0.337913644102
0.335980215536
0.33419090275
0.33253750371
0.331013693632
0.329611944071
0.328324253245
0.32714683363
0.326075910436
0.325105544438
0.324227497956
0.323436743136
0.32272917744
0.322101563919
0.3215654524
0.321085162239
0.320676674513
0.320335102334
0.320057174132
0.319858505556
56.197133789
56.197133789
56.197133789
56.197133789
56.197133789
56.197133789
56.197133789
56.197133789
56.197133789
56.197133789
56.197133789
56.197133789
56.197133789
56.197133789
56.197133789
56.1971337889
56.1971337878
56.1971337208
56.1971298709
56.1969126921
56.1872527562
44.4392956712
15.9694284217
7.42211951736
3.38008982698
1.83890086166
1.04416598654
0.680480015105
0.548082496618
0.506874427233
0.491436445449
0.48207755203
0.474264994719
0.467017396993
0.460149244111
0.453616296173
0.447399519442
0.441485006463
0.43586043981
0.430513383804
0.425434992916
0.42061436848
0.416041064659
0.411704885263
0.407596586724
0.403708161379
0.40003077457
0.396558343291
0.393285592469
0.390203368117
0.387304025269
0.384580629527
0.382029606907
0.379645987475
0.377424269074
0.375374108726
0.373452532759
0.371679705067
0.370050742012
0.368560667392
0.367204826552
0.365979054968
0.364879968316
0.36390557761
0.363052888724
0.3623193468
0.361702196999
0.361198843444
0.360806373556
0.36056403556
56.1971337898
56.1971337898
56.1971337898
56.1971337898
56.1971337898
56.1971337898
56.1971337898
56.1971337898
56.1971337898
56.1971337898
56.1971337898
56.1971337898
56.1971337898
56.1971337898
56.1971337898
56.1971337897
56.1971337864
56.1971335952
56.1971226546
56.1965093459
56.1709078173
32.0292876722
12.0431981393
5.7403184622
2.94418461004
1.63217868852
0.976569172834
0.698310471137
0.60424154658
0.573871683639
0.560200793035
0.550417012081
0.541703544203
0.533452308567
0.525554503619
0.517982507142
0.510723611319
0.503767875175
0.497107007783
0.490730178743
0.484630095333
0.478798066061
0.473224425724
0.467899996481
0.462820525402
0.457978786499
0.453367825538
0.448983631055
0.444839656198
0.440883696665
0.437142215314
0.433606374947
0.430270020711
0.427128081636
0.424180807364
0.421425504459
0.418857921206
0.416473648085
0.414269957064
0.412243806627
0.410395811062
0.408724677941
0.40722711067
0.405899278644
0.404757904422
0.40376016957
0.402927584207
0.402257088934
0.401746377453
0.401439464843
56.1971337905
56.1971337905
56.1971337905
56.1971337905
56.1971337904
56.1971337904
56.1971337904
56.1971337904
56.1971337904
56.1971337904
56.1971337904
56.1971337904
56.1971337904
56.1971337904
56.1971337904
56.1971337903
56.1971337822
56.1971333175
56.1971069395
56.1956438301
56.1374496953
23.245856575
10.4997274532
4.79636414708
2.59501419388
1.47902156609
0.945344096903
0.735484214007
0.666998619272
0.642796870921
0.629705391095
0.619199895889
0.609476561193
0.600150388902
0.591207739341
0.582586453536
0.574280200635
0.566283644802
0.558612159019
0.55119939996
0.544078431123
0.537236789967
0.530666250346
0.524360608592
0.51831661557
0.512528640311
0.506990058678
0.50169691863
0.496643784059
0.491832148623
0.4872568439
0.482912806758
0.478796351722
0.474907384568
0.471245518456
0.467830745286
0.464614527631
0.461621969989
0.458849791185
0.456295009976
0.453960700068
0.451845375746
0.449948040362
0.448266728878
0.44679793975
0.445542251732
0.444497369444
0.443661556784
0.443032540896
0.442661486031
56.197133791
56.197133791
56.197133791
56.197133791
56.197133791
56.197133791
56.197133791
56.197133791
56.197133791
56.197133791
56.197133791
56.1971337909
56.1971337909
56.1971337909
56.1971337909
56.1971337906
56.1971337742
56.1971328391
56.1970804464
56.1941938128
55.7163481545
19.0285387791
9.20985373961
4.17492510732
2.31000697101
1.36882563454
0.942233607223
0.785162643868
0.733710209738
0.712939011173
0.699654553254
0.688185873365
0.677368200319
0.666965455066
0.656922134324
0.647219019876
0.63784765912
0.628798565492
0.620060299643
0.611631069927
0.603502928836
0.595667506522
0.588119006564
0.580851597878
0.573862496781
0.567147772606
0.560700577813
0.554520707582
0.548606621993
0.542980803399
0.537585960745
0.532452716397
0.527575887814
0.522956256858
0.518595214733
0.514492148615
0.510646990989
0.507060870157
0.503733400764
0.50066459081
0.497881484438
0.495331850475
0.493045806819
0.491020236631
0.489253892291
0.487746387645
0.486495197048
0.485498690403
0.48475409178
0.484320516884
56.1971337914
56.1971337914
56.1971337914
56.1971337914
56.1971337914
56.1971337914
56.1971337914
56.1971337914
56.1971337914
56.1971337914
56.1971337914
56.1971337914
56.1971337914
56.1971337914
56.1971337914
56.1971337905
56.1971337411
56.1971309105
56.1969717331
56.1897193224
47.9357085597
16.9213329696
7.97056424607
3.66187094832
2.07745788919
1.29456188055
0.960095161524
0.842826119818
0.802621718804
0.783642617739
0.769767111601
0.7572268164
0.745258199831
0.733711543365
0.722546322214
0.711743749985
0.701295731918
0.691190104829
0.68141857469
0.671969227959
0.6628389504
0.65401996828
0.645505542807
0.637325625857
0.629404494126
0.621782250807
0.614448558803
0.607404801987
0.60064854945
0.594176662062
0.587990378516
0.582089045664
0.576477046426
0.571181706512
0.566140819262
0.561396016648
0.556944587966
0.552785536985
0.548920619658
0.545353895826
0.542088016196
0.539125422112
0.536464352714
0.534104992921
0.532046712511
0.530322302122
0.528866390273
0.527712563299
0.526855909416
0.526364515404
56.1971337917
56.1971337917
56.1971337917
56.1971337917
56.1971337917
56.1971337917
56.1971337917
56.1971337917
56.1971337917
56.1971337917
56.1971337917
56.1971337917
56.1971337917
56.1971337917
56.1971337917
56.1971337895
56.1971336613
56.1971263614
56.1967175343
56.1794296375
36.4742161457
13.3225922215
6.65074707578
3.22820073329
1.88875578407
1.24996021858
0.993438924378
0.905474910662
0.87268904009
0.85449097751
0.839812300877
0.826153762353
0.813026460879
0.800326926815
0.78803387349
0.776125753234
0.764590502573
0.753422891872
0.742647552121
0.732177916438
0.722047805424
0.712253051609
0.702786142673
0.693639704522
0.684815492419
0.676305684944
0.668108115774
0.660256833618
0.652677653169
0.645413595134
0.638462587593
0.631823474272
0.625496810485
0.619487325022
0.613799029561
0.608434186453
0.603426764617
0.59871370543
0.594336750778
0.590293990737
0.586590039218
0.583226278807
0.580205240607
0.577527491394
0.575193539861
0.57320332676
0.57155754584
0.570253526438
0.569287866067
0.568739233501
56.197133792
56.197133792
56.197133792
56.197133792
56.197133792
56.197133792
56.197133792
56.197133792
56.197133792
56.197133792
56.197133792
56.197133792
56.197133792
56.197133792
56.1971337919
56.1971337855
56.1971334208
56.1971128569
56.1959786028
56.151070228
25.8398904689
11.0433977539
5.1737808543
2.85820942754
1.74104841486
1.23192185566
1.03818214515
0.971316540252
0.943337654767
0.925241624747
0.909620886396
0.89482385752
0.88053494825
0.866690683279
0.853305517619
0.840284051707
0.827668254053
0.815441035019
0.803593909406
0.792120593682
0.781006758641
0.770252738154
0.759886144359
0.749824917132
0.740108015927
0.730729838252
0.721690570861
0.712985250232
0.704614867371
0.696583606837
0.688927675412
0.68156939564
0.674560618654
0.667896746473
0.66158125529
0.655619283391
0.650017726494
0.644779175591
0.639943197285
0.63544137172
0.631315935704
0.62756859311
0.624203616033
0.62122266351
0.618625784512
0.616412094532
0.614580873426
0.61313024759
0.612057418118
0.611453026192
56.1971337923
56.1971337923
56.1971337923
56.1971337923
56.1971337923
56.1971337923
56.1971337923
56.1971337923
56.1971337923
56.1971337923
56.1971337923
56.1971337923
56.1971337923
56.1971337923
56.197133792
56.1971337766
56.1971329096
56.197084862
56.1944964954
56.0979088008
19.5484465229
9.58225923112
4.43510623155
2.54820956134
1.63281635889
1.23669496848
1.09198400079
1.03974045132
1.01450199105
0.995953953896
0.979227169051
0.963267241727
0.947781157057
0.932766374007
0.91820614563
0.904083751411
0.890392711603
0.877117364901
0.864289906056
0.851808012806
0.839723120579
0.828018556914
0.816694140057
0.805741768553
0.795153702442
0.784974176241
0.775110804794
0.765611386766
0.75647569937
0.747702031921
0.739289769495
0.731250637065
0.723619988656
0.716321448377
0.709405858395
0.702877895497
0.69674151364
0.690998198946
0.685654494669
0.68075889291
0.676230254642
0.672118909244
0.668427301935
0.665156099205
0.662305177622
0.659875000745
0.657865205136
0.65627395812
0.655097630733
0.654440250014
56.1971337925
56.1971337925
56.1971337925
56.1971337925
56.1971337925
56.1971337925
56.1971337925
56.1971337925
56.1971337925
56.1971337925
56.1971337925
56.1971337925
56.1971337925
56.1971337925
56.1971337916
56.1971337419
56.1971309357
56.1969751799
56.1899601828
48.4285915029
17.117573287
8.17309033747
3.84142147834
2.29376643021
1.56041926384
1.26011534265
1.15209084204
1.10982268458
1.08590733324
1.06660322637
1.04864113549
1.031375893
1.01466190857
0.998463012474
0.982750590934
0.967565953216
0.952789583326
0.938465073531
0.924579056515
0.911116374048
0.898074173191
0.885485895538
0.873255062105
0.861420872173
0.849984608433
0.838938656506
0.828324299478
0.818054264152
0.808175541199
0.798684800351
0.789588116629
0.780887767604
0.772582984271
0.764729066387
0.757237806155
0.750168696712
0.743521004554
0.737301197365
0.731513384378
0.726160688934
0.721299363895
0.716843130138
0.712841621926
0.709294661745
0.706201292431
0.703564193625
0.701383460829
0.699657499398
0.698382369185
0.697676160422
56.1971337927
56.1971337927
56.1971337927
56.1971337927
56.1971337927
56.1971337927
56.1971337927
56.1971337927
56.1971337927
56.1971337927
56.1971337927
56.1971337927
56.1971337927
56.1971337926
56.1971337899
56.1971336348
56.1971249031
56.1966414108
56.1767702428
34.5983791608
12.8215280551
6.67566341118
3.34351374964
2.0902931396
1.52004867789
1.29744706543
1.21634509201
1.1806061233
1.15720421794
1.13689375542
1.1176652573
1.09911651982
1.08121147942
1.06380422125
1.04694060212
1.03058811589
1.0147352123
0.999419081497
0.984520648764
0.970083170403
0.956095522963
0.942547042369
0.929484430677
0.9167928523
0.904529623811
0.892685688873
0.88125061717
0.870282411682
0.859682559436
0.849503389577
0.839743428766
0.830411328695
0.821504598172
0.81307752613
0.805043054236
0.797455882145
0.790323122088
0.783649564369
0.777439773609
0.771698780788
0.766479191513
0.761695496668
0.757401421698
0.753594745219
0.750275729074
0.747445505483
0.745103749693
0.743248555779
0.741876265975
0.7411217628
56.1971337929
56.1971337929
56.1971337929
56.1971337929
56.1971337929
56.1971337929
56.1971337929
56.1971337928
56.1971337928
56.1971337928
56.1971337928
56.1971337928
56.1971337928
56.1971337927
56.1971337833
56.1971332586
56.1971042624
56.1955400472
56.1365015571
23.2339480603
10.6356487123
5.05380044571
2.93349832008
1.93859626202
1.50801916946
1.34541120692
1.28320587039
1.25163496873
1.22806496682
1.20664205231
1.18614748951
1.16639068329
1.14719948124
1.12860421285
1.11064041201
1.09316970993
1.07625026937
1.05985024776
1.04396190497
1.02861984164
1.01370647524
0.999262748198
0.985286359592
0.971817866324
0.958748424447
0.946128520898
0.933950380372
0.922218052962
0.910981503239
0.900138212193
0.889743996241
0.879801630358
0.870317026927
0.861346716764
0.852790991851
0.844715999877
0.837126722846
0.830024849289
0.823416425224
0.817305404339
0.81175432265
0.806662250431
0.802090858501
0.798037930931
0.794503309994
0.79148907755
0.788994136169
0.787015411412
0.785548727164
0.78474780437
56.197133793
56.197133793
56.197133793
56.197133793
56.197133793
56.197133793
56.197133793
56.197133793
56.197133793
56.197133793
56.197133793
56.197133793
56.197133793
56.1971337924
56.1971337622
56.1971320498
56.1970371839
56.1924590489
52.8093193108
18.2907202943
8.92324294478
4.25401235408
2.60367693365
1.83657504412
1.52035907605
1.40182041232
1.35223970048
1.32276206144
1.29848582248
1.27586959015
1.25405981981
1.23297859879
1.21261905178
1.19284461837
1.17369174318
1.15513817157
1.13721948078
1.11980719035
1.1029366647
1.08659970249
1.07083827419
1.05552562897
1.04071427731
1.02638553352
1.01259872459
0.999231383183
0.986340030248
0.973917067739
0.962028471738
0.950552516386
0.939556876768
0.929042344153
0.919011576751
0.909523062394
0.900479247138
0.891942978514
0.883917597513
0.876408055003
0.86941951206
0.86302008415
0.857102346458
0.851729345122
0.846898871842
0.842612116275
0.838873873189
0.835685068973
0.83304523974
0.830949107061
0.82939109982
0.828546004439
56.1971337931
56.1971337931
56.1971337931
56.1971337931
56.1971337931
56.1971337931
56.1971337931
56.1971337931
56.1971337931
56.1971337931
56.1971337931
56.1971337931
56.1971337931
56.1971337909
56.1971336677
56.1971268891
56.1967603666
56.1819846284
39.0873479957
14.6951538099
7.25541109832
3.62678330141
2.34985701463
1.77766750236
1.55118432653
1.46394276166
1.42243139566
1.39372534224
1.36840261554
1.34438500129
1.32123808952
1.29893510125
1.27729300215
1.25640997465
1.23613637653
1.21650621579
1.19750417823
1.17916249278
1.1613386271
1.1440902515
1.12745588175
1.11129326593
1.09566973727
1.08056615821
1.06603473758
1.05195003552
1.03837396052
1.02530065269
1.0127831096
1.00071130841
0.989148015428
0.97808990061
0.967604582953
0.957575336298
0.948073330192
0.939105398831
0.93067552519
0.922787571161
0.915512100401
0.908730561929
0.902519646511
0.896877737763
0.8918052265
0.887303203256
0.883374513958
0.880019601976
0.877296856706
0.875085592581
0.873439044647
0.872551393389
56.1971337932
56.1971337932
56.1971337932
56.1971337932
56.1971337932
56.1971337932
56.1971337932
56.1971337932
56.1971337932
56.1971337932
56.1971337932
56.1971337932
56.1971337931
56.1971337836
56.1971332591
56.1971046751
56.1955833102
56.1394907018
23.769881173
10.818604537
5.25496793933
3.13224564921
2.16760594928
1.7551212489
1.59537715206
1.52939692445
1.49269252524
1.46390673543
1.43741989933
1.41213443726
1.3876742815
1.36409917326
1.3412394542
1.31913448917
1.29782479216
1.27714474223
1.25713557917
1.23783508746
1.21909405393
1.20095657625
1.18348062883
1.16651552649
1.15011088548
1.1342635025
1.11902204212
1.10425414707
1.09002382633
1.07638795634
1.06321431735
1.05058278157
1.03848323024
1.02691642422
1.01595371334
1.0054728015
0.9955469904
0.986174652314
0.977430651939
0.969192457542
0.961535175939
0.954462358515
0.947979300718
0.942088984933
0.936790104032
0.932153361427
0.92804477097
0.924537668288
0.921626422282
0.919307578343
0.917572753354
0.916645409805
56.1971337934
56.1971337934
56.1971337934
56.1971337934
56.1971337933
56.1971337933
56.1971337933
56.1971337933
56.1971337933
56.1971337933
56.1971337933
56.1971337933
56.1971337926
56.1971337513
56.1971314718
56.1970080498
56.1914117686
51.1672938883
17.930546042
8.81511778618
4.30928356437
2.75646017125
2.051668592
1.76289286543
1.64948531513
1.59706496428
1.56269208866
1.53320037532
1.50550116939
1.47880103166
1.45312003713
1.42824933489
1.404285611
1.38106400097
1.35860747542
1.3369712893
1.31597898968
1.29574568422
1.27612002187
1.25713796959
1.23885750409
1.22111612662
1.20397616574
1.18748821606
1.17150951555
1.15610373415
1.14125611092
1.12704409543
1.11331676043
1.10015119074
1.08754569694
1.07557496914
1.064098509
1.05319667954
1.04287600801
1.03320994293
1.02405206818
1.01549873387
1.00754629642
1.00020145331
0.993465304652
0.987413974421
0.981909583578
0.977026199068
0.972761881863
0.969113804193
0.966081999726
0.963659762589
0.961840047582
0.960874666118
56.1971337934
56.1971337934
56.1971337934
56.1971337934
56.1971337934
56.1971337934
56.1971337934
56.1971337934
56.1971337934
56.1971337934
56.1971337934
56.1971337934
56.1971337896
56.1971335811
56.1971222111
56.1965134922
56.1731374547
33.1528654859
12.5423872772
6.85339347315
3.62094392403
2.48576559433
1.99045271698
1.79263567735
1.7101925312
1.66575233975
1.63206637211
1.60150236447
1.57245121305
1.54442606732
1.51747801578
1.49139595108
1.4663001827
1.44199051457
1.41850808407
1.39589279654
1.37396774013
1.35285035505
1.33236823428
1.31257601886
1.29352246913
1.27504993216
1.2572086552
1.24006764668
1.22345834193
1.20745020989
1.19210712611
1.17728085155
1.16304610711
1.14939439816
1.13640425724
1.12392029365
1.11203527794
1.10074843149
1.0901415398
1.08006051493
1.07060015666
1.06175648496
1.05353213595
1.04601356278
1.03904878216
1.03272430018
1.02703876484
1.02198879553
1.0175750888
1.01379361657
1.01071973339
1.00819539702
1.00629250344
1.00529027012
56.1971337935
56.1971337935
56.1971337935
56.1971337935
56.1971337935
56.1971337935
56.1971337935
56.1971337935
56.1971337935
56.1971337935
56.1971337935
56.1971337932
56.197133774
56.1971327443
56.1970784196
56.1942985817
56.0992559937
19.7508130629
9.93339412427
4.90587767777
3.11295950879
2.30876853783
1.9723991764
1.8370877915
1.77441283129
1.73418995939
1.70020707231
1.66848149947
1.63799846611
1.60875753031
1.58050601104
1.55335679461
1.5271665084
1.5018143193
1.47735301934
1.45380781602
1.43099742753
1.40904711644
1.38776595463
1.36729053345
1.34744345754
1.32828354874
1.30986721304
1.29201852033
1.27481874502
1.25833633549
1.24239360403
1.2270713114
1.21244275373
1.19834672079
1.18486359961
1.17199098558
1.15981669212
1.14817910619
1.13717380123
1.12679284109
1.11713043244
1.10802263774
1.09956069408
1.09174487814
1.08458101419
1.07806669361
1.07228878
1.06708557556
1.06253840113
1.05863995149
1.05538444477
1.0527693375
1.05078377745
1.04974659356
56.1971337936
56.1971337936
56.1971337936
56.1971337936
56.1971337936
56.1971337936
56.1971337936
56.1971337936
56.1971337936
56.1971337936
56.1971337936
56.1971337912
56.1971336657
56.1971269824
56.1967774819
56.1832842489
40.695982473
15.4536238361
7.73595939166
3.99947715434
2.75712944748
2.21018794183
1.98709274697
1.8919002969
1.84043771315
1.80181755396
1.76703077802
1.73398505442
1.70219557004
1.67170687777
1.64226420373
1.6139911271
1.58675822178
1.56042383639
1.53512045244
1.51062263219
1.48706524585
1.46424953685
1.44222207919
1.42105431179
1.40053684877
1.38082450743
1.3617273072
1.3433195518
1.3256679934
1.30858945382
1.29215833886
1.27646751232
1.26132944246
1.2468354339
1.23306010327
1.21983833865
1.207258413
1.19531790939
1.18411335455
1.17346676702
1.16347619842
1.15414605162
1.14547186236
1.1375523744
1.13020883598
1.12353791353
1.11753441371
1.11219865645
1.10752868095
1.10351916956
1.10016200905
1.09754097982
1.09547133647
1.09439944261
56.1971337937
56.1971337937
56.1971337937
56.1971337937
56.1971337937
56.1971337937
56.1971337937
56.1971337937
56.1971337937
56.1971337937
56.1971337934
56.1971337784
56.1971329778
56.1970910392
56.1949527501
56.1220115548
21.6227484485
10.5255838236
5.30114491008
3.37365654099
2.52847263039
2.17046694383
2.02267191678
1.95226927998
1.90659317119
1.86803990489
1.83211553274
1.7977864741
1.76474183005
1.7330728719
1.70262145994
1.67322432152
1.64500820675
1.61773953882
1.5915633737
1.56623934178
1.54192684158
1.51838232027
1.49576730293
1.47386486678
1.45283361058
1.4324637734
1.41282188719
1.39400022032
1.37577881317
1.3582460689
1.34148160141
1.32529996061
1.3097850076
1.29502694168
1.2808299799
1.2672968157
1.25451798491
1.24231320168
1.23077661684
1.21990630213
1.20970411345
1.20027522021
1.1914250323
1.18325335421
1.17576299638
1.16895033449
1.16290993536
1.15745792142
1.15268454148
1.14857621193
1.14513123785
1.14233917635
1.14019244026
1.13908833624
56.1971337937
56.1971337937
56.1971337937
56.1971337937
56.1971337937
56.1971337937
56.1971337937
56.1971337937
56.1971337937
56.1971337937
56.1971337915
56.197133674
56.1971275093
56.1968097712
56.184680413
42.3512707389
15.9904693402
8.04827897326
4.2096870471
2.95358191214
2.40204717034
2.17302434377
2.07186688447
2.01504236179
1.97161930412
1.93240107343
1.8952424744
1.85968009793
1.82547223453
1.79272019039
1.76124331055
1.73088471966
1.70178539734
1.67377145562
1.64670386278
1.62073112119
1.59560398215
1.57150020215
1.54816693915
1.52578014323
1.50410782466
1.48322757278
1.46321158406
1.44383427581
1.42528778479
1.40736051147
1.39013666064
1.37371124715
1.35787208034
1.34271970091
1.32824563988
1.31455679411
1.30144020862
1.28900616984
1.2773567138
1.2662907579
1.2559192268
1.24622953
1.23722795943
1.22902282488
1.22140423547
1.21448023981
1.20824264051
1.20269183938
1.19782265892
1.19362459601
1.19019445079
1.18731891072
1.18509369456
1.18395810223
56.1971337938
56.1971337938
56.1971337938
56.1971337938
56.1971337938
56.1971337938
56.1971337938
56.1971337938
56.1971337938
56.1971337935
56.1971337762
56.1971328715
56.1970862962
56.1947540867
56.1174245361
21.1953430029
10.5195240299
5.40030849305
3.51046043147
2.69609036875
2.35001238358
2.20233793317
2.12816251275
2.07794680137
2.03492554358
1.99466082749
1.95628158252
1.9195480466
1.88435150874
1.85050740633
1.81810372157
1.78698114577
1.75696602871
1.72820999998
1.70042987107
1.6738016976
1.6481589277
1.62336691904
1.59958943479
1.57658265965
1.55442283191
1.53319230878
1.51265207026
1.4930023034
1.47399583766
1.45573022897
1.43830214465
1.42148282964
1.40537441472
1.39008256949
1.37538073179
1.36138049492
1.34817717464
1.33557219245
1.32365866285
1.31244056319
1.30203389397
1.29221996296
1.28310373025
1.27468479826
1.26696097061
1.26005446437
1.25372520945
1.2480894941
1.24313797018
1.23886149497
1.23525186982
1.23230045901
1.22999432423
1.22882611331
56.1971337939
56.1971337939
56.1971337939
56.1971337939
56.1971337939
56.1971337939
56.1971337939
56.1971337939
56.1971337938
56.1971337905
56.1971336208
56.1971248951
56.1966842621
56.1807477829
38.6363631581
15.1200663095
7.8368802381
4.22802038861
3.06712188544
2.561373006
2.34723958716
2.2473743942
2.18730214053
2.13951678685
2.09586627323
2.05452141845
2.01503839696
1.97728062757
1.94110880875
1.90643993945
1.87309226248
1.84120843729
1.81059128386
1.78105681545
1.75278114265
1.72546506346
1.69929311216
1.67410930873
1.64976083364
1.62643403639
1.60387270254
1.58215436953
1.56137509886
1.54127519682
1.52207881126
1.50353642231
1.48574447506
1.46881846145
1.45249808243
1.4369002478
1.42214345806
1.40797797024
1.39452032027
1.3818967851
1.3698600373
1.35854429678
1.34792998435
1.33801839172
1.32893893029
1.32043930172
1.31264894357
1.30556267959
1.29916788338
1.29345858098
1.28856329451
1.28421517886
1.28053797643
1.27751164629
1.27512254896
1.27392132152
56.1971337939
56.1971337939
56.1971337939
56.1971337939
56.1971337939
56.1971337939
56.1971337939
56.1971337939
56.1971337933
56.1971337632
56.1971322164
56.1970531676
56.1932130437
54.904804057
19.1894556792
9.87316855948
5.17006721716
3.52478589266
2.81415679206
2.50989732551
2.37408402573
2.30010602964
2.24626998057
2.19879353251
2.15427291105
2.1119001916
2.07145528939
2.03267150303
1.9956723731
1.96024030258
1.92629695991
1.89372684045
1.86236790182
1.83237962831
1.80346101817
1.77578442953
1.74917162458
1.72345983256
1.69884788135
1.67505955148
1.65229187918
1.63027566172
1.60910634291
1.58888512528
1.56933881907
1.55070022369
1.53271559134
1.51547831719
1.49912821506
1.48339047704
1.46838825502
1.45424176155
1.44068876949
1.42786686149
1.41575098873
1.40448851883
1.39381692389
1.38385628206
1.37459756087
1.36618500384
1.35834190915
1.35120677647
1.3447681735
1.33901512014
1.33393783359
1.32952579285
1.32591161276
1.32280417273
1.32033291568
1.31910132633
56.197133794
56.197133794
56.197133794
56.197133794
56.197133794
56.197133794
56.197133794
56.1971337938
56.1971337858
56.1971333752
56.1971125811
56.1960842259
56.1614454011
29.2600323709