/*--------------------------------*- C++ -*----------------------------------*\
| =========                 |                                                 |
| \\      /  F ield         | foam-extend: Open Source CFD                    |
|  \\    /   O peration     | Version:     4.1                                |
|   \\  /    A nd           | Web:         http://www.foam-extend.org         |
|    \\/     M anipulation  |                                                 |
\*---------------------------------------------------------------------------*/
FoamFile
{
    version     2.0;
    format      ascii;
    class       volScalarField;
    location    "0.0007";
    object      mu;
}
// * * * * * * * * * * * * * * * * * * * * * * * * * * * * * * * * * * * * * //

dimensions      [1 -1 -1 0 0 0 0];

internalField   nonuniform List<scalar> 
8400
(
1.68899961491e-05
1.68899961491e-05
1.68899961491e-05
1.68899961491e-05
1.68899961491e-05
1.68899961491e-05
1.68899961491e-05
1.68899961491e-05
1.68899961491e-05
1.68899961491e-05
1.68899961491e-05
1.68899961491e-05
1.68899961491e-05
1.68899961491e-05
1.68899961491e-05
1.68899961491e-05
1.68899961491e-05
1.68899961491e-05
1.68899961493e-05
1.68899961619e-05
1.68899968651e-05
1.68900366078e-05
1.68910132858e-05
2.23364998935e-05
9.3481894079e-05
0.000175092555237
0.000149356009589
8.64990635832e-05
6.5480239233e-05
5.85167966557e-05
5.6287647269e-05
5.55561915232e-05
5.5290067724e-05
5.51539580393e-05
5.50538653276e-05
5.49662638227e-05
5.4884826131e-05
5.48072553619e-05
5.47317884986e-05
5.46574131785e-05
5.45831167134e-05
5.45081524646e-05
5.44316493921e-05
5.43648119861e-05
5.42834953108e-05
5.4199010089e-05
5.4110759726e-05
5.40183200841e-05
5.3921385998e-05
5.38205328008e-05
5.37150771368e-05
5.36050741646e-05
5.34906905071e-05
5.33723111917e-05
5.32508888285e-05
5.31276181917e-05
5.3003042358e-05
5.28785514518e-05
5.27550498752e-05
5.2645019902e-05
5.25282709577e-05
5.2417381035e-05
5.23141455894e-05
5.22199638641e-05
5.21361706896e-05
5.20640465276e-05
5.20048125519e-05
5.19594277414e-05
5.19285856933e-05
5.18943770131e-05
1.6889996149e-05
1.6889996149e-05
1.6889996149e-05
1.6889996149e-05
1.6889996149e-05
1.6889996149e-05
1.6889996149e-05
1.6889996149e-05
1.6889996149e-05
1.6889996149e-05
1.6889996149e-05
1.6889996149e-05
1.6889996149e-05
1.6889996149e-05
1.6889996149e-05
1.6889996149e-05
1.6889996149e-05
1.6889996149e-05
1.68899961501e-05
1.68899962153e-05
1.6889999832e-05
1.68902041126e-05
1.68931951173e-05
4.64198172627e-05
0.000141823891555
0.000220328250126
0.000114906829036
7.45031510243e-05
6.0868179068e-05
5.65549495419e-05
5.52414655159e-05
5.48492526813e-05
5.47148651566e-05
5.46479199595e-05
5.45916494588e-05
5.45358147902e-05
5.44784214154e-05
5.44187843622e-05
5.43565952406e-05
5.42916427907e-05
5.42238099175e-05
5.41415274686e-05
5.40668944358e-05
5.39885341379e-05
5.3906405726e-05
5.38198347831e-05
5.37286375991e-05
5.36327063445e-05
5.35319649992e-05
5.34268757757e-05
5.33176283591e-05
5.32040020496e-05
5.30863857352e-05
5.29653179348e-05
5.28421600622e-05
5.27178554018e-05
5.25930194659e-05
5.24686223791e-05
5.235781377e-05
5.22387921381e-05
5.21246978669e-05
5.20171442191e-05
5.19179744125e-05
5.18277845809e-05
5.17478088436e-05
5.1679288748e-05
5.16232785248e-05
5.1580596173e-05
5.15517068175e-05
5.15229665657e-05
1.68899961489e-05
1.68899961489e-05
1.68899961489e-05
1.68899961489e-05
1.68899961489e-05
1.68899961489e-05
1.68899961489e-05
1.68899961489e-05
1.68899961489e-05
1.68899961489e-05
1.68899961489e-05
1.68899961489e-05
1.68899961489e-05
1.68899961489e-05
1.68899961489e-05
1.68899961489e-05
1.68899961489e-05
1.6889996149e-05
1.68899961542e-05
1.68899964559e-05
1.6890013575e-05
1.68906838858e-05
1.8330659301e-05
8.34524453114e-05
0.00016407803316
0.000168319452814
9.21231303945e-05
6.65032166426e-05
5.80876721726e-05
5.55151941624e-05
5.47685002287e-05
5.45495167286e-05
5.44695516846e-05
5.44276602577e-05
5.43884328406e-05
5.4347000994e-05
5.43024031927e-05
5.42429841077e-05
5.41909051854e-05
5.41345651541e-05
5.40738624393e-05
5.40089555197e-05
5.3939537555e-05
5.38651521198e-05
5.37856279785e-05
5.37009305321e-05
5.36108404621e-05
5.35154718937e-05
5.34156473444e-05
5.33108614778e-05
5.32013440313e-05
5.30874412422e-05
5.29696840954e-05
5.2849705943e-05
5.27278204483e-05
5.26048262846e-05
5.24817332718e-05
5.23597417994e-05
5.22408447298e-05
5.2125690597e-05
5.20161205979e-05
5.19134305692e-05
5.18185085852e-05
5.17323809412e-05
5.16561035503e-05
5.15908797282e-05
5.15378926161e-05
5.14978378604e-05
5.1470945342e-05
5.14457416705e-05
1.68899961489e-05
1.68899961489e-05
1.68899961489e-05
1.68899961489e-05
1.68899961489e-05
1.68899961489e-05
1.68899961489e-05
1.68899961489e-05
1.68899961489e-05
1.68899961489e-05
1.68899961489e-05
1.68899961489e-05
1.68899961489e-05
1.68899961489e-05
1.68899961489e-05
1.68899961489e-05
1.68899961489e-05
1.68899961493e-05
1.68899961752e-05
1.68899976369e-05
1.68900818204e-05
1.68916640574e-05
3.0376021897e-05
0.000114415133176
0.000194028218955
0.000130181192697
7.93242914183e-05
6.22730889374e-05
5.68456004693e-05
5.51892335784e-05
5.47235109228e-05
5.45705348962e-05
5.45121179107e-05
5.44673671011e-05
5.44235643395e-05
5.43777840058e-05
5.43292254803e-05
5.42775569102e-05
5.4211126296e-05
5.41519455514e-05
5.40883355152e-05
5.40202640975e-05
5.39477790971e-05
5.38702015225e-05
5.37873467459e-05
5.36991743147e-05
5.36055675725e-05
5.3506608206e-05
5.34032526569e-05
5.32951148314e-05
5.31824745269e-05
5.30657353125e-05
5.29455841601e-05
5.28236369617e-05
5.27003253581e-05
5.25764216688e-05
5.24529079741e-05
5.23310655714e-05
5.22128795674e-05
5.21100494803e-05
5.20016539298e-05
5.19006214042e-05
5.18074381763e-05
5.17232841824e-05
5.16492104803e-05
5.15862014113e-05
5.15349711038e-05
5.14960030932e-05
5.14695725839e-05
5.14461483593e-05
1.68899961488e-05
1.68899961488e-05
1.68899961488e-05
1.68899961488e-05
1.68899961488e-05
1.68899961488e-05
1.68899961488e-05
1.68899961488e-05
1.68899961488e-05
1.68899961488e-05
1.68899961488e-05
1.68899961488e-05
1.68899961488e-05
1.68899961488e-05
1.68899961488e-05
1.68899961488e-05
1.68899961489e-05
1.68899961505e-05
1.6889996247e-05
1.68900015987e-05
1.68903024841e-05
1.68942887317e-05
5.68839999762e-05
0.000148067793619
0.000210237345405
0.00010792054414
7.20818542821e-05
6.01542731431e-05
5.64104843442e-05
5.52762762304e-05
5.49369050426e-05
5.48187636942e-05
5.47534918205e-05
5.46964264104e-05
5.46393896559e-05
5.45806643873e-05
5.4519701579e-05
5.44562370027e-05
5.43896237154e-05
5.43194521981e-05
5.42454598805e-05
5.41560226849e-05
5.40732003918e-05
5.39857040191e-05
5.38936713545e-05
5.37965475729e-05
5.36943297371e-05
5.35871389834e-05
5.34751814615e-05
5.33594494953e-05
5.3239721911e-05
5.31274587575e-05
5.3001344589e-05
5.28734015527e-05
5.27454270359e-05
5.26174743344e-05
5.24908606203e-05
5.23666530535e-05
5.22460339935e-05
5.21303148215e-05
5.20206538863e-05
5.19186622371e-05
5.18251616294e-05
5.17409431483e-05
5.1667028819e-05
5.16042594999e-05
5.15532779042e-05
5.15145300343e-05
5.14882647411e-05
5.14653799796e-05
1.68899961488e-05
1.68899961488e-05
1.68899961488e-05
1.68899961488e-05
1.68899961488e-05
1.68899961488e-05
1.68899961488e-05
1.68899961488e-05
1.68899961488e-05
1.68899961488e-05
1.68899961488e-05
1.68899961488e-05
1.68899961488e-05
1.68899961488e-05
1.68899961488e-05
1.68899961488e-05
1.68899961489e-05
1.68899961533e-05
1.68899964085e-05
1.6890010895e-05
1.68906448576e-05
1.78419488932e-05
8.16959719033e-05
0.000162297151715
0.000172918158749
9.4332880723e-05
6.78950124005e-05
5.91681920846e-05
5.64640357637e-05
5.56375332231e-05
5.53707360887e-05
5.52460903562e-05
5.51623775386e-05
5.50838984936e-05
5.500584876e-05
5.4926958057e-05
5.48465702113e-05
5.47645584795e-05
5.46804926779e-05
5.45935115797e-05
5.45033655948e-05
5.4409723149e-05
5.43120435394e-05
5.42100481573e-05
5.41035392125e-05
5.39924041121e-05
5.38774689802e-05
5.37582254828e-05
5.36347812597e-05
5.35074131237e-05
5.33766790219e-05
5.32439549081e-05
5.31091454976e-05
5.29731236988e-05
5.28367578818e-05
5.27017656068e-05
5.25688518367e-05
5.24392037328e-05
5.23141296839e-05
5.21945265747e-05
5.20816183026e-05
5.1976353575e-05
5.18800640496e-05
5.17938865334e-05
5.17290839267e-05
5.16648953547e-05
5.16129206882e-05
5.15735622839e-05
5.15468506989e-05
5.15130963029e-05
1.68899961488e-05
1.68899961488e-05
1.68899961488e-05
1.68899961488e-05
1.68899961488e-05
1.68899961488e-05
1.68899961488e-05
1.68899961488e-05
1.68899961488e-05
1.68899961488e-05
1.68899961488e-05
1.68899961488e-05
1.68899961488e-05
1.68899961488e-05
1.68899961488e-05
1.68899961488e-05
1.68899961491e-05
1.68899961631e-05
1.68899969557e-05
1.68900420039e-05
1.6891098487e-05
2.32736093551e-05
9.56291835566e-05
0.000177590953903
0.00014569725511
8.5502512516e-05
6.53962190296e-05
5.88725794257e-05
5.68147104256e-05
5.61856584684e-05
5.59548085078e-05
5.58132465779e-05
5.5703647963e-05
5.55987398855e-05
5.54951205178e-05
5.53915050527e-05
5.52878755107e-05
5.51835535909e-05
5.50775333054e-05
5.49693059312e-05
5.48584471299e-05
5.47448904899e-05
5.46285308468e-05
5.45085037411e-05
5.43849989856e-05
5.42575653699e-05
5.41261901616e-05
5.3991013474e-05
5.38527066189e-05
5.37118188525e-05
5.35681878283e-05
5.34224263109e-05
5.32755920951e-05
5.31290907516e-05
5.29829258094e-05
5.28497929919e-05
5.27080730277e-05
5.25703225393e-05
5.24376125342e-05
5.23118476605e-05
5.21935490922e-05
5.20836574141e-05
5.19832425842e-05
5.18932287453e-05
5.18144580207e-05
5.17481514666e-05
5.16943456131e-05
5.16534692847e-05
5.16257442108e-05
5.16029981706e-05
1.68899961488e-05
1.68899961488e-05
1.68899961488e-05
1.68899961488e-05
1.68899961488e-05
1.68899961488e-05
1.68899961488e-05
1.68899961488e-05
1.68899961488e-05
1.68899961488e-05
1.68899961488e-05
1.68899961488e-05
1.68899961488e-05
1.68899961488e-05
1.68899961488e-05
1.68899961488e-05
1.68899961495e-05
1.68899961898e-05
1.6889998436e-05
1.68901257859e-05
1.68922776448e-05
3.59625946567e-05
0.000130903845619
0.000210825001304
0.000125697301549
7.95351219056e-05
6.39661352893e-05
5.89568972152e-05
5.73909078492e-05
5.68767061127e-05
5.6650033631e-05
5.6488587377e-05
5.63526391663e-05
5.62202172333e-05
5.60890004523e-05
5.59582529781e-05
5.58280462033e-05
5.56977734753e-05
5.55665185026e-05
5.54338572269e-05
5.52994380654e-05
5.51638743532e-05
5.50256246376e-05
5.48843332615e-05
5.47398782465e-05
5.45932002159e-05
5.44433640336e-05
5.42907578519e-05
5.41465118636e-05
5.3988652472e-05
5.38289395079e-05
5.36690480842e-05
5.35085782178e-05
5.33484057863e-05
5.31897659437e-05
5.30344607906e-05
5.28827436569e-05
5.27360238411e-05
5.25950253703e-05
5.24610421697e-05
5.2335270238e-05
5.22194866281e-05
5.21141019955e-05
5.20196298378e-05
5.19480689898e-05
5.18782027718e-05
5.18215486075e-05
5.17785123619e-05
5.17493656903e-05
5.17262036532e-05
1.68899961488e-05
1.68899961488e-05
1.68899961488e-05
1.68899961488e-05
1.68899961488e-05
1.68899961488e-05
1.68899961488e-05
1.68899961488e-05
1.68899961488e-05
1.68899961488e-05
1.68899961488e-05
1.68899961488e-05
1.68899961488e-05
1.68899961488e-05
1.68899961488e-05
1.68899961488e-05
1.68899961505e-05
1.68899962484e-05
1.68900016582e-05
1.68903040849e-05
1.68943223466e-05
5.64821758937e-05
0.000147622787509
0.000212963543094
0.000111558223668
7.53958439093e-05
6.32640817785e-05
5.93618237135e-05
5.81259317661e-05
5.76715954989e-05
5.74482942463e-05
5.72709383694e-05
5.71054327735e-05
5.69314510472e-05
5.67706390473e-05
5.66117085065e-05
5.64534511495e-05
5.62957107418e-05
5.61490464759e-05
5.59898978903e-05
5.58296809637e-05
5.5668804321e-05
5.55058822198e-05
5.53407253196e-05
5.51737765223e-05
5.50052492852e-05
5.48345836227e-05
5.46618308999e-05
5.44870518682e-05
5.43107605251e-05
5.41345106053e-05
5.39577764357e-05
5.37813287225e-05
5.36068393873e-05
5.34348853752e-05
5.327774409e-05
5.31139306306e-05
5.29563265709e-05
5.28053773081e-05
5.26622618763e-05
5.25281805585e-05
5.24049558074e-05
5.22930488897e-05
5.21931171549e-05
5.21058726407e-05
5.20319972038e-05
5.19720149619e-05
5.19263459468e-05
5.18952513016e-05
5.1871151613e-05
1.68899961488e-05
1.68899961488e-05
1.68899961488e-05
1.68899961488e-05
1.68899961488e-05
1.68899961488e-05
1.68899961488e-05
1.68899961488e-05
1.68899961488e-05
1.68899961488e-05
1.68899961488e-05
1.68899961488e-05
1.68899961488e-05
1.68899961488e-05
1.68899961488e-05
1.68899961488e-05
1.68899961523e-05
1.68899963487e-05
1.6890007126e-05
1.68905853451e-05
1.71081763281e-05
7.81708697001e-05
0.00015859465649
0.000184836315426
0.000100988261982
7.25819416019e-05
6.30910732004e-05
6.0035543247e-05
5.90127113186e-05
5.85991517641e-05
5.83533634968e-05
5.81417919707e-05
5.79406946017e-05
5.77441322889e-05
5.7550262943e-05
5.73583263894e-05
5.71686296379e-05
5.69802393025e-05
5.67921865398e-05
5.66045721204e-05
5.64172082808e-05
5.62294501171e-05
5.60405580338e-05
5.5850135498e-05
5.56586893076e-05
5.54661704243e-05
5.52719768288e-05
5.50766517738e-05
5.48810619025e-05
5.46966094071e-05
5.45009522286e-05
5.43064904624e-05
5.41131991456e-05
5.39220141503e-05
5.37351984024e-05
5.35527872385e-05
5.33756974691e-05
5.32056321961e-05
5.3043882473e-05
5.28910699109e-05
5.27596810796e-05
5.26277678313e-05
5.25086378415e-05
5.24023879739e-05
5.23099831093e-05
5.22319664434e-05
5.21686826328e-05
5.21204633615e-05
5.20874928875e-05
5.20622742518e-05
1.68899961488e-05
1.68899961488e-05
1.68899961488e-05
1.68899961488e-05
1.68899961488e-05
1.68899961488e-05
1.68899961488e-05
1.68899961488e-05
1.68899961488e-05
1.68899961488e-05
1.68899961488e-05
1.68899961488e-05
1.68899961488e-05
1.68899961488e-05
1.68899961488e-05
1.6889996149e-05
1.68899961594e-05
1.68899967488e-05
1.68900299623e-05
1.68909422812e-05
2.10590473873e-05
9.05332078448e-05
0.000171096237978
0.000159182074953
9.3076403193e-05
7.0753974693e-05
6.33214302224e-05
6.09017362606e-05
6.00375915244e-05
5.96368822542e-05
5.93584640927e-05
5.91072400522e-05
5.88651458352e-05
5.86293747539e-05
5.83982457361e-05
5.81702361538e-05
5.79463038969e-05
5.77247946252e-05
5.75050320682e-05
5.72860673321e-05
5.70684453803e-05
5.68513312516e-05
5.66337066324e-05
5.64286201178e-05
5.62103465872e-05
5.5992596644e-05
5.57739537877e-05
5.55551461062e-05
5.53370528373e-05
5.51197413047e-05
5.49031895797e-05
5.46879907561e-05
5.44765420442e-05
5.42806600494e-05
5.40766440845e-05
5.38793466559e-05
5.3688664879e-05
5.35059071878e-05
5.33317362419e-05
5.31674372637e-05
5.30151132534e-05
5.28750718444e-05
5.2747955915e-05
5.26346518683e-05
5.25357323832e-05
5.24654573566e-05
5.2397818466e-05
5.2346454213e-05
5.23113910426e-05
5.22853214572e-05
1.68899961488e-05
1.68899961488e-05
1.68899961488e-05
1.68899961488e-05
1.68899961488e-05
1.68899961488e-05
1.68899961488e-05
1.68899961488e-05
1.68899961488e-05
1.68899961488e-05
1.68899961488e-05
1.68899961488e-05
1.68899961488e-05
1.68899961488e-05
1.68899961488e-05
1.68899961493e-05
1.68899961765e-05
1.68899976935e-05
1.68900835265e-05
1.68916983152e-05
3.00248853894e-05
0.000112087897757
0.00018970565811
0.000138627475588
8.70289242898e-05
6.9602614336e-05
6.38651881347e-05
6.19397870873e-05
6.11847159182e-05
6.0774680698e-05
6.04554740806e-05
6.01587956884e-05
5.98729097491e-05
5.95940817599e-05
5.93224829213e-05
5.9056396472e-05
5.87940288124e-05
5.85358936274e-05
5.82929900473e-05
5.80407172738e-05
5.77899643989e-05
5.75414630131e-05
5.72940255025e-05
5.70470315082e-05
5.68017836081e-05
5.6557244078e-05
5.63127743707e-05
5.60814979097e-05
5.58387292261e-05
5.55984250034e-05
5.53605226099e-05
5.51254418816e-05
5.48935488816e-05
5.46670619594e-05
5.44464220671e-05
5.4232399105e-05
5.40383945043e-05
5.38409919716e-05
5.36544975609e-05
5.34793160825e-05
5.33164276309e-05
5.31666725507e-05
5.3030971019e-05
5.29105537241e-05
5.2806129986e-05
5.27179004748e-05
5.26464202631e-05
5.25921340047e-05
5.25549202196e-05
5.25277117301e-05
1.68899961488e-05
1.68899961488e-05
1.68899961488e-05
1.68899961488e-05
1.68899961488e-05
1.68899961488e-05
1.68899961488e-05
1.68899961488e-05
1.68899961488e-05
1.68899961488e-05
1.68899961488e-05
1.68899961488e-05
1.68899961488e-05
1.68899961488e-05
1.68899961488e-05
1.68899961502e-05
1.68899962277e-05
1.68900004917e-05
1.68902375136e-05
1.68936144947e-05
4.89262066891e-05
0.000142902596524
0.00022120980586
0.000122093896348
8.25516835916e-05
6.91219799851e-05
6.46468593465e-05
6.30892412817e-05
6.24234730733e-05
6.19930260979e-05
6.16318189964e-05
6.1289219818e-05
6.09573348594e-05
6.06343051492e-05
6.0330329872e-05
6.00208867191e-05
5.97182322667e-05
5.94208910004e-05
5.91280384129e-05
5.88399743753e-05
5.85544663111e-05
5.82728158702e-05
5.80054826331e-05
5.77282616421e-05
5.74527244804e-05
5.71786270591e-05
5.69072320767e-05
5.66380898952e-05
5.63706585882e-05
5.61063379462e-05
5.58580743391e-05
5.56004904396e-05
5.53490372973e-05
5.51035155562e-05
5.48644195984e-05
5.46329981629e-05
5.44115016778e-05
5.42001338248e-05
5.40121747907e-05
5.38243529966e-05
5.36499248635e-05
5.34898391278e-05
5.33455026299e-05
5.3217779035e-05
5.31067173099e-05
5.30131806373e-05
5.29373275921e-05
5.28794417605e-05
5.2839704712e-05
5.28112356672e-05
1.68899961488e-05
1.68899961488e-05
1.68899961488e-05
1.68899961488e-05
1.68899961488e-05
1.68899961488e-05
1.68899961488e-05
1.68899961488e-05
1.68899961488e-05
1.68899961488e-05
1.68899961488e-05
1.68899961488e-05
1.68899961488e-05
1.68899961488e-05
1.68899961488e-05
1.68899961521e-05
1.68899963361e-05
1.68900062894e-05
1.68905407e-05
1.68968728382e-05
7.44209281098e-05
0.000155419296254
0.000197696843591
0.000109738597706
7.9453963191e-05
6.91620041997e-05
6.57042672658e-05
6.43973300301e-05
6.37690160139e-05
6.3299426224e-05
6.28882154489e-05
6.2506087017e-05
6.21247519106e-05
6.17527389386e-05
6.13910155837e-05
6.10368070123e-05
6.06914996949e-05
6.03531361878e-05
6.00329939497e-05
5.97048006701e-05
5.93826811794e-05
5.90641946236e-05
5.87509182792e-05
5.84414004752e-05
5.81343080003e-05
5.78436836292e-05
5.75428701469e-05
5.72454940081e-05
5.6952492655e-05
5.66634141632e-05
5.63783057837e-05
5.60995470685e-05
5.5839474306e-05
5.55731561726e-05
5.53152652668e-05
5.50670972418e-05
5.48293641198e-05
5.46025456651e-05
5.43881885858e-05
5.42013702919e-05
5.40151841532e-05
5.38445777849e-05
5.36913332662e-05
5.35552723356e-05
5.34373136176e-05
5.33378130953e-05
5.32571003548e-05
5.31954810903e-05
5.31531357511e-05
5.31232715795e-05
1.68899961488e-05
1.68899961488e-05
1.68899961488e-05
1.68899961488e-05
1.68899961488e-05
1.68899961488e-05
1.68899961488e-05
1.68899961488e-05
1.68899961488e-05
1.68899961488e-05
1.68899961488e-05
1.68899961488e-05
1.68899961488e-05
1.68899961488e-05
1.6889996149e-05
1.68899961596e-05
1.68899967506e-05
1.68900295608e-05
1.68909530335e-05
2.0775362263e-05
8.95154858221e-05
0.000169037941944
0.000168164957293
0.000100534231088
7.74905838127e-05
6.968558532e-05
6.69615255872e-05
6.58502171731e-05
6.52097665492e-05
6.47035236388e-05
6.42330734094e-05
6.37830169973e-05
6.33466051221e-05
6.29237079386e-05
6.25116492784e-05
6.21238678954e-05
6.17324110471e-05
6.13496688711e-05
6.09756366146e-05
6.0607728245e-05
6.0246883578e-05
5.99040107571e-05
5.95543585992e-05
5.92087627242e-05
5.88688411782e-05
5.85336202957e-05
5.82156808354e-05
5.78899600974e-05
5.75697087395e-05
5.72541015567e-05
5.69451683033e-05
5.66432716524e-05
5.63482296295e-05
5.60749409092e-05
5.57973461316e-05
5.5531189108e-05
5.5276919044e-05
5.50352875836e-05
5.48070543916e-05
5.45930610802e-05
5.4409445356e-05
5.422890668e-05
5.4066540601e-05
5.39222864146e-05
5.37968965216e-05
5.36910085593e-05
5.36051679426e-05
5.35400963386e-05
5.34952480296e-05
5.34641961464e-05
1.68899961488e-05
1.68899961488e-05
1.68899961488e-05
1.68899961488e-05
1.68899961488e-05
1.68899961488e-05
1.68899961488e-05
1.68899961488e-05
1.68899961488e-05
1.68899961488e-05
1.68899961488e-05
1.68899961488e-05
1.68899961488e-05
1.68899961488e-05
1.68899961494e-05
1.68899961827e-05
1.68899980202e-05
1.68901006419e-05
1.68919479202e-05
3.20290748323e-05
0.000117199023302
0.000189536503046
0.000144052910976
9.35521637731e-05
7.63920384824e-05
7.05508869504e-05
6.84074055876e-05
6.73937864168e-05
6.67417890345e-05
6.61751593012e-05
6.56405522036e-05
6.51268818079e-05
6.46452934186e-05
6.41657040805e-05
6.37017479992e-05
6.3250557948e-05
6.28109780134e-05
6.23954367148e-05
6.19768873819e-05
6.15666093237e-05
6.11650113943e-05
6.07708620701e-05
6.03976873139e-05
6.00163519392e-05
5.96421262521e-05
5.92742742189e-05
5.89113726091e-05
5.85690027158e-05
5.82195230958e-05
5.78772005914e-05
5.75420154889e-05
5.72162572977e-05
5.68991676882e-05
5.66048673491e-05
5.63084356413e-05
5.60232607865e-05
5.57516304957e-05
5.5494298109e-05
5.52519805203e-05
5.50257533574e-05
5.48299077032e-05
5.46381692089e-05
5.44663531302e-05
5.43139246356e-05
5.41818806674e-05
5.40703860568e-05
5.39800240475e-05
5.39111237447e-05
5.386352152e-05
5.38310612494e-05
1.68899961488e-05
1.68899961488e-05
1.68899961488e-05
1.68899961488e-05
1.68899961488e-05
1.68899961488e-05
1.68899961488e-05
1.68899961488e-05
1.68899961488e-05
1.68899961488e-05
1.68899961488e-05
1.68899961488e-05
1.68899961488e-05
1.68899961488e-05
1.68899961508e-05
1.68899962635e-05
1.68900023445e-05
1.68903312063e-05
1.68946581858e-05
5.65648538392e-05
0.000146628728644
0.000220086708645
0.000125477831173
8.87125977762e-05
7.60613261955e-05
7.16918299071e-05
6.99499647885e-05
6.90254784653e-05
6.83344932049e-05
6.77066675446e-05
6.71080317045e-05
6.65449167891e-05
6.59890659e-05
6.54509186172e-05
6.49436084194e-05
6.44375166415e-05
6.39474617124e-05
6.34701224648e-05
6.30059211487e-05
6.25650828896e-05
6.21215828064e-05
6.16866525751e-05
6.12617124072e-05
6.0857412565e-05
6.0447637592e-05
6.00461840953e-05
5.96514105464e-05
5.92654520874e-05
5.89005548319e-05
5.85307161482e-05
5.81694084724e-05
5.78178534448e-05
5.74772167709e-05
5.71620503852e-05
5.68446038592e-05
5.65409773082e-05
5.62524323786e-05
5.59792307327e-05
5.57224209917e-05
5.54823018166e-05
5.52753677031e-05
5.50727658396e-05
5.48913320294e-05
5.47305422473e-05
5.4591345339e-05
5.44739212235e-05
5.43786707407e-05
5.4305956507e-05
5.42555394698e-05
5.42215381851e-05
1.68899961488e-05
1.68899961488e-05
1.68899961488e-05
1.68899961488e-05
1.68899961488e-05
1.68899961488e-05
1.68899961488e-05
1.68899961488e-05
1.68899961488e-05
1.68899961488e-05
1.68899961488e-05
1.68899961488e-05
1.68899961488e-05
1.68899961489e-05
1.68899961554e-05
1.68899965229e-05
1.68900166734e-05
1.68907744865e-05
1.8452534879e-05
8.30232765572e-05
0.00016152926816
0.000189028940116
0.000112200870922
8.5673918129e-05
7.64490001817e-05
7.3127471423e-05
7.16526046624e-05
7.07426879457e-05
6.99932253528e-05
6.93085871343e-05
6.86404189941e-05
6.79988525034e-05
6.7392655137e-05
6.67944192968e-05
6.62160415873e-05
6.56559339449e-05
6.51253490333e-05
6.45978384611e-05
6.40839376055e-05
6.3583974343e-05
6.31098973339e-05
6.26336195246e-05
6.21686752918e-05
6.17130103822e-05
6.12812877933e-05
6.08453744646e-05
6.04187837876e-05
6.00007599602e-05
5.96078511465e-05
5.92093052259e-05
5.88218702676e-05
5.84460762941e-05
5.80821445815e-05
5.77440177184e-05
5.74065066567e-05
5.70839482096e-05
5.67773492013e-05
5.64875748418e-05
5.62149814422e-05
5.59765708538e-05
5.5743322811e-05
5.55311222341e-05
5.53397523325e-05
5.51701141266e-05
5.50233605941e-05
5.49000162024e-05
5.47998452822e-05
5.47231461477e-05
5.46698397369e-05
5.4634251557e-05
1.68899961488e-05
1.68899961488e-05
1.68899961488e-05
1.68899961488e-05
1.68899961488e-05
1.68899961488e-05
1.68899961488e-05
1.68899961488e-05
1.68899961488e-05
1.68899961488e-05
1.68899961488e-05
1.68899961488e-05
1.68899961488e-05
1.68899961493e-05
1.68899961759e-05
1.68899976151e-05
1.68900758535e-05
1.68916055688e-05
2.74957061855e-05
0.000102953615893
0.00018050376618
0.00015795737606
0.000102788401941
8.40098567624e-05
7.73759924868e-05
7.47995801326e-05
7.34838156214e-05
7.25528904749e-05
7.17281489901e-05
7.09515479449e-05
7.0208322334e-05
6.95088578028e-05
6.88235735692e-05
6.81760892909e-05
6.75383974966e-05
6.69208672277e-05
6.63242290579e-05
6.5758264607e-05
6.51946728178e-05
6.46480617866e-05
6.41297703134e-05
6.3609195163e-05
6.31029867896e-05
6.26084617403e-05
6.21400286555e-05
6.16680371149e-05
6.12080221167e-05
6.07596299712e-05
6.03357522642e-05
5.99098289967e-05
5.94962701016e-05
5.90953485438e-05
5.87228452599e-05
5.83491869529e-05
5.79907651728e-05
5.76493615587e-05
5.73252008358e-05
5.70192046327e-05
5.67474683337e-05
5.64798450755e-05
5.6234514599e-05
5.60109812861e-05
5.58099886896e-05
5.56322939873e-05
5.54782357733e-05
5.53485086924e-05
5.52581870194e-05
5.51771668897e-05
5.51206123927e-05
5.50833106386e-05
1.68899961488e-05
1.68899961488e-05
1.68899961488e-05
1.68899961488e-05
1.68899961488e-05
1.68899961488e-05
1.68899961488e-05
1.68899961488e-05
1.68899961488e-05
1.68899961488e-05
1.68899961488e-05
1.68899961488e-05
1.68899961488e-05
1.68899961509e-05
1.68899962647e-05
1.68900023331e-05
1.68903254817e-05
1.68946191549e-05
5.48304968024e-05
0.00014513318851
0.00022188843353
0.000134494658976
9.65216129781e-05
8.34051820168e-05
7.86701049103e-05
7.66091217184e-05
7.53762607722e-05
7.43959269483e-05
7.34946194114e-05
7.26517832525e-05
7.18320671297e-05
7.10591006794e-05
7.0302697368e-05
6.95754330376e-05
6.88894207883e-05
6.82134369015e-05
6.75614788164e-05
6.69433319182e-05
6.63304847782e-05
6.5734855301e-05
6.51714336489e-05
6.46088152332e-05
6.40599410051e-05
6.35265426568e-05
6.30199727786e-05
6.25127456127e-05
6.20183793655e-05
6.15520354905e-05
6.10831484574e-05
6.06289994126e-05
6.01890747022e-05
5.97631111765e-05
5.93672622122e-05
5.89724142004e-05
5.85946183991e-05
5.82334547478e-05
5.79076752967e-05
5.75851050852e-05
5.72837654154e-05
5.70041374977e-05
5.67468784459e-05
5.65128760907e-05
5.63025438829e-05
5.61326220795e-05
5.59707382902e-05
5.58342239582e-05
5.57235965341e-05
5.56387201117e-05
5.55792258354e-05
5.5540203154e-05
1.68899961488e-05
1.68899961488e-05
1.68899961488e-05
1.68899961488e-05
1.68899961488e-05
1.68899961488e-05
1.68899961488e-05
1.68899961488e-05
1.68899961488e-05
1.68899961488e-05
1.68899961488e-05
1.68899961488e-05
1.68899961489e-05
1.6889996158e-05
1.68899966507e-05
1.68900231652e-05
1.68908888579e-05
1.929490463e-05
8.51228584559e-05
0.000162697584931
0.000191872220675
0.000118634000626
9.29109571329e-05
8.37980173416e-05
8.02917206511e-05
7.85426932239e-05
7.73265736575e-05
7.62755537257e-05
7.53042782947e-05
7.43651233235e-05
7.3480860655e-05
7.26209427398e-05
7.18085182173e-05
7.10154521712e-05
7.02509444124e-05
6.95286285948e-05
6.8818417802e-05
6.8145797261e-05
6.74822186229e-05
6.68384427877e-05
6.62296876244e-05
6.56226785036e-05
6.50336663825e-05
6.44747656501e-05
6.39169383928e-05
6.33742006465e-05
6.28456271526e-05
6.23482821745e-05
6.18492940856e-05
6.13655626391e-05
6.08980729962e-05
6.04626808693e-05
6.00282358008e-05
5.96110589405e-05
5.92129427878e-05
5.88512753783e-05
5.84912111646e-05
5.81536905576e-05
5.78382137316e-05
5.7545735142e-05
5.72768651304e-05
5.704867554e-05
5.68287373384e-05
5.66346949042e-05
5.64663460591e-05
5.6324499665e-05
5.62090279345e-05
5.6120013201e-05
5.60574374916e-05
5.60167431775e-05
1.68899961488e-05
1.68899961488e-05
1.68899961488e-05
1.68899961488e-05
1.68899961488e-05
1.68899961488e-05
1.68899961488e-05
1.68899961488e-05
1.68899961488e-05
1.68899961488e-05
1.68899961488e-05
1.68899961488e-05
1.68899961496e-05
1.68899961954e-05
1.68899986436e-05
1.68901302133e-05
1.68923628281e-05
3.42251390448e-05
0.000121666445033
0.000187065902912
0.000158072731952
0.000108295115354
9.11418574741e-05
8.48982127482e-05
8.21845519046e-05
8.0587634837e-05
7.93345639884e-05
7.81960188991e-05
7.71347563969e-05
7.61108511947e-05
7.51474712075e-05
7.42104024762e-05
7.33288428027e-05
7.2467717207e-05
7.16402569974e-05
7.08581716012e-05
7.00907592711e-05
6.93647843502e-05
6.86476201671e-05
6.79546655292e-05
6.7298071362e-05
6.66478797455e-05
6.60158717322e-05
6.54190849117e-05
6.48239287353e-05
6.42459680645e-05
6.37002616923e-05
6.31553713021e-05
6.26276536806e-05
6.21167985786e-05
6.16389540452e-05
6.11623517502e-05
6.07042284241e-05
6.02661165245e-05
5.98646660362e-05
5.94670306194e-05
5.90914572282e-05
5.87387157684e-05
5.84091542644e-05
5.81206900691e-05
5.78401136187e-05
5.75853903855e-05
5.73568764324e-05
5.71548719416e-05
5.6979942224e-05
5.68319309505e-05
5.67290893873e-05
5.66358920717e-05
5.65700780945e-05
5.65274731795e-05
1.68899961488e-05
1.68899961488e-05
1.68899961488e-05
1.68899961488e-05
1.68899961488e-05
1.68899961488e-05
1.68899961488e-05
1.68899961488e-05
1.68899961488e-05
1.68899961488e-05
1.68899961488e-05
1.68899961488e-05
1.6889996153e-05
1.68899963783e-05
1.68900080172e-05
1.6890597356e-05
1.68974763561e-05
7.32177431513e-05
0.000152732835218
0.000217342873679
0.000134177778966
0.000102064810815
9.08013978051e-05
8.64031688923e-05
8.41997547906e-05
8.266600428e-05
8.13433045248e-05
8.01265616016e-05
7.89578884132e-05
7.78614249939e-05
7.68022219169e-05
7.58056380773e-05
7.4852645072e-05
7.39233237439e-05
7.30328824023e-05
7.21908431297e-05
7.13666055842e-05
7.05870974505e-05
6.98196154559e-05
6.90936536298e-05
6.83759294304e-05
6.76812211349e-05
6.70240380799e-05
6.63694760585e-05
6.57366360278e-05
6.51408597805e-05
6.45462942031e-05
6.39708684766e-05
6.34305995384e-05
6.28921418825e-05
6.23726242039e-05
6.18726016683e-05
6.14100946588e-05
6.09502369596e-05
6.0512882855e-05
6.0097774614e-05
5.9724423718e-05
5.93558589206e-05
5.90122915057e-05
5.86942100905e-05
5.84023411107e-05
5.813732707e-05
5.79177418023e-05
5.77073625725e-05
5.752569589e-05
5.73719622491e-05
5.72467175815e-05
5.71496455036e-05
5.70805633691e-05
5.70359018364e-05
1.68899961488e-05
1.68899961488e-05
1.68899961488e-05
1.68899961488e-05
1.68899961488e-05
1.68899961488e-05
1.68899961488e-05
1.68899961488e-05
1.68899961488e-05
1.68899961488e-05
1.68899961488e-05
1.68899961493e-05
1.6889996177e-05
1.68899976266e-05
1.68900735681e-05
1.68915995029e-05
2.61364219481e-05
9.86606389149e-05