/*--------------------------------*- C++ -*----------------------------------*\
| =========                 |                                                 |
| \\      /  F ield         | foam-extend: Open Source CFD                    |
|  \\    /   O peration     | Version:     4.1                                |
|   \\  /    A nd           | Web:         http://www.foam-extend.org         |
|    \\/     M anipulation  |                                                 |
\*---------------------------------------------------------------------------*/
FoamFile
{
    version     2.0;
    format      ascii;
    class       volScalarField;
    location    "0.0007";
    object      N;
}
// * * * * * * * * * * * * * * * * * * * * * * * * * * * * * * * * * * * * * //

dimensions      [0 0 0 0 0 0 0];

internalField   nonuniform List<scalar> 
8400
(
7.71492891559e-105
7.71492891563e-105
7.71492891567e-105
7.71492891571e-105
7.71492891575e-105
7.71492891579e-105
7.71492891583e-105
7.71492891587e-105
7.71492891591e-105
7.71492891595e-105
7.71492891598e-105
7.71492891602e-105
7.71492891605e-105
7.71492891609e-105
7.71492891612e-105
7.71492891616e-105
7.7149289162e-105
7.71492891658e-105
7.71492893719e-105
7.7149301287e-105
7.71499679695e-105
7.71876459119e-105
7.81135827379e-105
3.30026897263e-38
2.12341229504e-05
0.53084758294
0.586577309418
0.382586896207
0.279210060335
0.235349911152
0.21830221998
0.212320333279
0.210356759314
0.209563084498
0.209076765761
0.208679667204
0.208316263971
0.207969730953
0.207631173712
0.207295732338
0.20695876268
0.206616236755
0.206263856023
0.205958166169
0.205579990103
0.205185840744
0.204772165803
0.204337450465
0.203880348851
0.203402812229
0.202902748281
0.202380501412
0.201835167285
0.201269477219
0.20068755501
0.20009517637
0.199496475661
0.198896971319
0.198300628696
0.197769801332
0.197202861821
0.196664717638
0.196162977505
0.195704535997
0.195295866465
0.194942764674
0.194650795014
0.194425451253
0.194269927398
0.193993579915
7.71492890327e-105
7.71492890329e-105
7.7149289033e-105
7.71492890332e-105
7.71492890334e-105
7.71492890335e-105
7.71492890337e-105
7.71492890339e-105
7.7149289034e-105
7.71492890342e-105
7.71492890343e-105
7.71492890345e-105
7.71492890346e-105
7.71492890348e-105
7.71492890349e-105
7.7149289035e-105
7.71492890355e-105
7.71492890539e-105
7.71492901187e-105
7.71493518899e-105
7.71527807444e-105
7.73464483908e-105
8.01820617957e-105
7.70490377025e-17
0.0794074555612
0.73811207878
0.490094881038
0.327695493792
0.252804243054
0.222696178861
0.211719513781
0.208239788047
0.207146421529
0.206682776012
0.206341014127
0.206018056523
0.205692020782
0.205357702248
0.205013437624
0.204658151273
0.204291379259
0.203855609811
0.203460678118
0.203048886805
0.202620270588
0.202172358614
0.201703767381
0.20121306935
0.200701347526
0.200170549243
0.199621326474
0.199052669428
0.198464163969
0.197859798301
0.197246175941
0.19662833322
0.196009493486
0.195391837642
0.194842819947
0.19425131482
0.193685416069
0.193152799109
0.192660988593
0.192213425844
0.191815700979
0.191473506389
0.191193231647
0.190978998946
0.190832592435
0.190606879956
7.71492889751e-105
7.71492889752e-105
7.71492889754e-105
7.71492889755e-105
7.71492889755e-105
7.71492889756e-105
7.71492889757e-105
7.71492889758e-105
7.71492889759e-105
7.7149288976e-105
7.71492889761e-105
7.71492889762e-105
7.71492889763e-105
7.71492889764e-105
7.71492889765e-105
7.71492889766e-105
7.71492889781e-105
7.71492890624e-105
7.7149294017e-105
7.71495800225e-105
7.71658097818e-105
7.78012959633e-105
8.88100816844e-39
1.24664986173e-06
0.372529609259
0.63090862422
0.406886369022
0.286422059109
0.234891241139
0.215126383119
0.208468218112
0.206484385608
0.205829741645
0.205517294033
0.205253886076
0.204990280545
0.204717163545
0.204374830572
0.204072499058
0.203752560759
0.203415073181
0.203060042852
0.202686003515
0.202291103373
0.201874223089
0.201433214153
0.20096853032
0.200480733664
0.199972998346
0.19944392636
0.198893552632
0.198322286418
0.197733629082
0.197134767996
0.196528714981
0.195918670211
0.195308708971
0.194704336233
0.19411392309
0.193542777152
0.192999785242
0.192491952651
0.192023040378
0.191595841369
0.191215572634
0.190889510925
0.190625229824
0.190426205905
0.190291195534
0.190098383981
7.71492889409e-105
7.7149288941e-105
7.7149288941e-105
7.71492889411e-105
7.71492889412e-105
7.71492889412e-105
7.71492889413e-105
7.71492889414e-105
7.71492889415e-105
7.71492889415e-105
7.71492889416e-105
7.71492889417e-105
7.71492889417e-105
7.71492889418e-105
7.71492889418e-105
7.7149288942e-105
7.71492889492e-105
7.71492893683e-105
7.71493139251e-105
7.71506996658e-105
7.7230509626e-105
7.87305448233e-105
7.90296915103e-38
0.00166533802855
0.70393510033
0.536540933223
0.351069222379
0.261899119061
0.225547081038
0.2120248787
0.207788772689
0.206485927851
0.206027061814
0.205720881498
0.20544054323
0.205158640243
0.20486833818
0.20456785808
0.204197956451
0.203868350009
0.203520479127
0.203154304208
0.202769349791
0.202363037297
0.201934275682
0.201480993043
0.201003629542
0.200502832428
0.199982422709
0.199441304667
0.198879938233
0.19829872122
0.197702207551
0.197097602441
0.196488144451
0.195876757153
0.195267279954
0.194666316481
0.194081887382
0.193575611303
0.193040832127
0.192542509644
0.192082643252
0.191666602968
0.191299733112
0.190987797465
0.190734269455
0.190541058674
0.190408912467
0.190233297724
7.71492889183e-105
7.71492889183e-105
7.71492889184e-105
7.71492889184e-105
7.71492889185e-105
7.71492889185e-105
7.71492889186e-105
7.71492889186e-105
7.71492889187e-105
7.71492889187e-105
7.71492889188e-105
7.71492889188e-105
7.71492889189e-105
7.71492889189e-105
7.7149288919e-105
7.71492889195e-105
7.71492889467e-105
7.71492905239e-105
7.71493819515e-105
7.71544556548e-105
7.74397091748e-105
8.12188597564e-105
7.1483686026e-13
0.142979463956
0.712147991794
0.466371599647
0.315536413588
0.247995073352
0.221167747116
0.211590638402
0.208629076087
0.207692861514
0.207249404086
0.20689755914
0.206560349615
0.206221645148
0.20587689106
0.205523677765
0.205159377152
0.204781689998
0.204389364725
0.203924017402
0.203495511855
0.203046399769
0.20257728927
0.202086212988
0.2015722114
0.201035568322
0.200478255157
0.199904118763
0.199311561855
0.19875765628
0.198134884079
0.197505501926
0.196876349147
0.196248316626
0.195626363799
0.19501620297
0.194424043291
0.193855752733
0.193317861701
0.192816780476
0.19235665939
0.191941952394
0.191577731278
0.191268066884
0.191016699549
0.190825492992
0.190695218747
0.190528714117
7.71492889023e-105
7.71492889024e-105
7.71492889024e-105
7.71492889025e-105
7.71492889025e-105
7.71492889025e-105
7.71492889026e-105
7.71492889026e-105
7.71492889027e-105
7.71492889027e-105
7.71492889028e-105
7.71492889028e-105
7.71492889028e-105
7.71492889029e-105
7.71492889029e-105
7.71492889042e-105
7.71492889744e-105
7.71492931248e-105
7.71495350719e-105
7.71632689746e-105
7.7764295404e-105
5.86808492493e-39
6.5814038418e-07
0.345528326901
0.640517829409
0.415325651309
0.292954592946
0.240261790325
0.219884478249
0.212853355783
0.21066329157
0.209811072498
0.20930947481
0.208867384635
0.208437151333
0.208008226555
0.20757680613
0.207141363156
0.206699486981
0.206247352969
0.205783006672
0.205304241055
0.204809010071
0.204295245661
0.20376176907
0.203208350168
0.202637425747
0.202047782151
0.201439378068
0.200812874169
0.200171493595
0.199520716039
0.198861269219
0.19819558501
0.197529041591
0.19686864954
0.196218424216
0.195584290477
0.194972910303
0.194389046746
0.193836716725
0.193321657576
0.19285003688
0.192426322216
0.192109092468
0.191793270209
0.191538387854
0.191344936843
0.191213063948
0.190993710538
7.71492888906e-105
7.71492888906e-105
7.71492888907e-105
7.71492888907e-105
7.71492888908e-105
7.71492888908e-105
7.71492888908e-105
7.71492888909e-105
7.71492888909e-105
7.71492888909e-105
7.7149288891e-105
7.7149288891e-105
7.7149288891e-105
7.71492888911e-105
7.71492888912e-105
7.71492888951e-105
7.71492891246e-105
7.71493024811e-105
7.71500539004e-105
7.71927616602e-105
7.81943574234e-105
3.84885297559e-38
3.49026353896e-05
0.562242342614
0.577192398919
0.377964577602
0.278093458519
0.236464369318
0.220513653855
0.215226281889
0.213485572895
0.212626374339
0.212023754212
0.211466913564
0.210923190215
0.210384618425
0.209849571824
0.209314562628
0.208775198091
0.208227550792
0.207670530392
0.207103100154
0.206524139165
0.205930112511
0.205320152895
0.204693366257
0.204048868609
0.203387551275
0.202712286787
0.202025163998
0.201325640762
0.200615817691
0.199901638261
0.199188904066
0.198477628816
0.197830648223
0.197140799553
0.196469801012
0.195824114643
0.195211667767
0.194635555854
0.1941000424
0.193609755313
0.193170196238
0.192785432117
0.192460783257
0.192197468641
0.191997647093
0.191862169574
0.191703786696
7.71492888817e-105
7.71492888817e-105
7.71492888818e-105
7.71492888818e-105
7.71492888818e-105
7.71492888819e-105
7.71492888819e-105
7.71492888819e-105
7.7149288882e-105
7.7149288882e-105
7.7149288882e-105
7.7149288882e-105
7.71492888821e-105
7.71492888821e-105
7.71492888823e-105
7.71492888936e-105
7.71492895497e-105
7.71493277122e-105
7.71514572568e-105
7.72721910047e-105
7.93122545989e-105
2.39220361892e-23
0.0211221083563
0.748333902517
0.523061245316
0.350265866683
0.268411681575
0.234969583906
0.222547864443
0.218408921001
0.216878626623
0.215977138987
0.215267982828
0.214591871126
0.213926893165
0.213268223447
0.212615404324
0.211965253465
0.211313373567
0.210656945584
0.209994915459
0.209328789635
0.208652399287
0.207962123815
0.207258892801
0.206545538215
0.20581864863
0.205077853421
0.204380469285
0.203616024647
0.202844442184
0.202071179052
0.201295651765
0.200520523802
0.199753376783
0.199001757314
0.19826774338
0.197556659499
0.196873044122
0.196222084179
0.19561170552
0.195049523987
0.194537918639
0.194078438423
0.193731399786
0.193389942185
0.193113388868
0.192903792137
0.192762615503
0.192605339425
7.71492888748e-105
7.71492888748e-105
7.71492888748e-105
7.71492888748e-105
7.71492888749e-105
7.71492888749e-105
7.71492888749e-105
7.7149288875e-105
7.7149288875e-105
7.7149288875e-105
7.7149288875e-105
7.71492888751e-105
7.71492888751e-105
7.71492888751e-105
7.71492888756e-105
7.71492889034e-105
7.71492905109e-105
7.71493832627e-105
7.71545120093e-105
7.74412268497e-105
8.1250728294e-105
6.50377294818e-13
0.137442775327
0.717577702118
0.477748411557
0.329416114407
0.262394138174
0.235370568786
0.225548875073
0.222155360553
0.220780206462
0.219844389005
0.219012909419
0.218152187177
0.217360072188
0.216578807382
0.21580404538
0.215032723719
0.214318358269
0.213544025908
0.212767797977
0.211989528246
0.21120330001
0.21040699597
0.209603350642
0.208792807681
0.207972359976
0.207142612919
0.206302789336
0.205456621087
0.204610200435
0.203761502037
0.202913256282
0.202073795655
0.201245935838
0.200490252103
0.199700925608
0.198941028436
0.198213113771
0.197520997379
0.196872812325
0.196276620142
0.195735412859
0.195252445559
0.194829757709
0.194471744748
0.194180996663
0.193959803308
0.193809573504
0.193648977206
7.71492888692e-105
7.71492888692e-105
7.71492888693e-105
7.71492888693e-105
7.71492888693e-105
7.71492888693e-105
7.71492888694e-105
7.71492888694e-105
7.71492888694e-105
7.71492888694e-105
7.71492888695e-105
7.71492888695e-105
7.71492888695e-105
7.71492888695e-105
7.71492888706e-105
7.71492889282e-105
7.71492922063e-105
7.71494784143e-105
7.71596957945e-105
7.77078747041e-105
1.3154120794e-39
1.62938237648e-07
0.288917942179
0.663989974962
0.439403153864
0.314010434716
0.259113684183
0.237327564155
0.229407377406
0.226565026825
0.225187751647
0.224126118827
0.223146861336
0.222196501434
0.221262350797
0.220339109001
0.219427809197
0.21852463374
0.217623733388
0.216726727141
0.215832220455
0.214936141961
0.214035831458
0.213127992782
0.212216077276
0.211299689926
0.210374114441
0.209443350585
0.208510329946
0.207632282857
0.20669932762
0.205770994939
0.204847755672
0.203933930957
0.203039720806
0.202166516007
0.201317505499
0.200501279074
0.199723689578
0.198987596906
0.198356628877
0.197720991069
0.197147005398
0.196635356297
0.196190143142
0.195814266767
0.195509689432
0.195277861629
0.195119549769
0.194955611282
7.71492888647e-105
7.71492888647e-105
7.71492888647e-105
7.71492888648e-105
7.71492888648e-105
7.71492888648e-105
7.71492888648e-105
7.71492888649e-105
7.71492888649e-105
7.71492888649e-105
7.71492888649e-105
7.71492888649e-105
7.7149288865e-105
7.7149288865e-105
7.7149288868e-105
7.71492890395e-105
7.71492989688e-105
7.71498576645e-105
7.71813456876e-105
7.80462670275e-105
2.53687664829e-38
1.02323653689e-05
0.474622350845
0.609364552951
0.407574622487
0.302790586365
0.257967074416
0.240411727015
0.23400586628
0.231502032176
0.230055259082
0.22884131959
0.227691541606
0.226576084252
0.225484081292
0.224407806554
0.223350906839
0.222306104333
0.221270219815
0.220237997126
0.219212345792
0.21818943664
0.21716281909
0.216197390939
0.215168161258
0.21414114027
0.213108842799
0.212075314847
0.211044641114
0.210015481316
0.20898925384
0.207968694712
0.206963944919
0.206034563541
0.205063335091
0.204123524837
0.203214488502
0.202341629321
0.201508621857
0.200722676367
0.199993027611
0.19932239637
0.198713082877
0.19816942775
0.197693867807
0.19735818181
0.197032692069
0.196787115686
0.196620608144
0.196456489301
7.7149288861e-105
7.7149288861e-105
7.7149288861e-105
7.7149288861e-105
7.7149288861e-105
7.71492888611e-105
7.71492888611e-105
7.71492888611e-105
7.71492888611e-105
7.71492888611e-105
7.71492888612e-105
7.71492888612e-105
7.71492888612e-105
7.71492888614e-105
7.71492888691e-105
7.71492893161e-105
7.7149315131e-105
7.71507533332e-105
7.72321270132e-105
7.87630228844e-105
7.68109434083e-38
0.0010763358132
0.676967190451
0.5578624706
0.381006087137
0.294577917886
0.258519152483
0.244478555239
0.23923070664
0.236903215656
0.235335610919
0.233942707856
0.23261329924
0.231318891965
0.230058230706
0.22882272621
0.227604268146
0.226404233155
0.225276153092
0.22410297104
0.222935482428
0.221778215666
0.220625296904
0.219473449521
0.218328281856
0.217185199589
0.21604052404
0.214958669117
0.213819503655
0.212690407814
0.211571356966
0.210464178024
0.20937004284
0.208299146763
0.207254751979
0.206240313936
0.205321224127
0.204382811872
0.203495856129
0.202661429122
0.201885339109
0.201171368993
0.200524378706
0.199949624008
0.199450696475
0.199029644682
0.198689285083
0.19843134871
0.198255605835
0.198088437029
7.71492888578e-105
7.71492888578e-105
7.71492888579e-105
7.71492888579e-105
7.71492888579e-105
7.71492888579e-105
7.71492888579e-105
7.7149288858e-105
7.7149288858e-105
7.7149288858e-105
7.7149288858e-105
7.7149288858e-105
7.71492888581e-105
7.71492888585e-105
7.71492888808e-105
7.71492901632e-105
7.71493636653e-105
7.71534061814e-105
7.73781141157e-105
8.05796513106e-105
1.38078443655e-16
0.0881651146854
0.741253510495
0.510225076612
0.359533674695
0.289453829535
0.260416650496
0.249213408595
0.244915051038
0.242666159798
0.240965659142
0.239394049364
0.237878678585
0.236403583283
0.235015572023
0.233599679896
0.232214159381
0.230851324738
0.229507479242
0.228184858093
0.226871590231
0.225573563359
0.224342360604
0.223062007536
0.221788151089
0.220519083282
0.219259986532
0.218009077343
0.216763661852
0.215530324448
0.214372684195
0.213166480807
0.211988101241
0.210834709895
0.209709912282
0.208619781228
0.207574302679
0.206574252314
0.205686731075
0.204795483055
0.20396824266
0.203208694221
0.202523797895
0.201917522658
0.201390850829
0.200946966418
0.200587534758
0.200314262719
0.200128147823
0.199958240892
7.71492888552e-105
7.71492888552e-105
7.71492888552e-105
7.71492888552e-105
7.71492888552e-105
7.71492888553e-105
7.71492888553e-105
7.71492888553e-105
7.71492888553e-105
7.71492888553e-105
7.71492888553e-105
7.71492888554e-105
7.71492888554e-105
7.71492888564e-105
7.71492889111e-105
7.71492920073e-105
7.71494664863e-105
7.71589026428e-105
7.76655490785e-105
8.36687145192e-105
3.08058791845e-08
0.241050501908
0.687624131479
0.46874792111
0.343070234795
0.286811020626
0.263798572978
0.254784778803
0.251092776354
0.248803956485
0.246930172511
0.245214101878
0.243502815947
0.241832445215
0.240204903841
0.238608333027
0.237048920639
0.235518083742
0.234069011879
0.232578175718
0.231113250217
0.229661548336
0.228231456803
0.226815939581
0.225408525305
0.224076179598
0.22269173881
0.221321289501
0.219968066264
0.218630143021
0.217308064861
0.216011225595
0.214801802717
0.213558170649
0.212352275778
0.211189966414
0.210074767783
0.209008022353
0.207997734186
0.207119658447
0.20624011959
0.205434871469
0.204710892175
0.204068625168
0.203511396881
0.203041663365
0.202661608692
0.202372839362
0.202175959177
0.202002608806
7.71492888529e-105
7.71492888529e-105
7.71492888529e-105
7.71492888529e-105
7.71492888529e-105
7.7149288853e-105
7.7149288853e-105
7.7149288853e-105
7.7149288853e-105
7.7149288853e-105
7.7149288853e-105
7.7149288853e-105
7.71492888531e-105
7.71492888562e-105
7.71492890327e-105
7.71492991095e-105
7.71498593971e-105
7.71809649902e-105
7.80564606967e-105
2.36354367806e-38
7.74594471986e-06
0.443024133963
0.628412295353
0.433844595533
0.331168168482
0.286542985853
0.268302634859
0.261089011442
0.25768495088
0.255345379224
0.25325750167
0.251273466224
0.249347737181
0.247477846368
0.245650623793
0.243928637247
0.242184231473
0.240475268416
0.238801124948
0.237150585338
0.235526957679
0.233983448054
0.232402924735
0.230837243462
0.229293953041
0.227767038327
0.226318914117
0.224828785187
0.223360921934
0.221911114699
0.220488320366
0.219094708263
0.217728140025
0.216462703584
0.215172137892
0.213933480508
0.212747718956
0.211618519752
0.21054992141
0.209545439931
0.208686174668
0.207838637186
0.20707576258
0.206398226324
0.205808486561
0.205311383305
0.204909891299
0.20460688991
0.204400526599
0.204225472853
7.71492888509e-105
7.71492888509e-105
7.71492888509e-105
7.71492888509e-105
7.71492888509e-105
7.7149288851e-105
7.7149288851e-105
7.7149288851e-105
7.7149288851e-105
7.7149288851e-105
7.7149288851e-105
7.71492888511e-105
7.71492888512e-105
7.7149288861e-105
7.71492894149e-105
7.71493210243e-105
7.71510630538e-105
7.72483533069e-105
7.89996601063e-105
2.42184950692e-24
0.00252444480763
0.674388945438
0.570375628636
0.404468717591
0.32287028687
0.288061892973
0.273848362062
0.267844920865
0.264659466161
0.262146092835
0.259824936833
0.25759799466
0.255506789345
0.253417892052
0.25139067647
0.249413319797
0.247480066148
0.245650357871
0.243799295488
0.241979439995
0.240193327129
0.23843449651
0.236767276754
0.235056072147
0.233372600745
0.231713384164
0.230069713398
0.228518345367
0.226928480447
0.225366931847
0.223834123749
0.222340579688
0.220882701014
0.21952847406
0.218159653303
0.216839950362
0.215580616528
0.214384890927
0.213256578119
0.21220069576
0.211289077923
0.210393984998
0.209591849473
0.208880251961
0.208262723296
0.207742303363
0.207321999946
0.207003418064
0.206786238805
0.206608601775
7.71492888491e-105
7.71492888492e-105
7.71492888492e-105
7.71492888492e-105
7.71492888492e-105
7.71492888492e-105
7.71492888492e-105
7.71492888492e-105
7.71492888493e-105
7.71492888493e-105
7.71492888493e-105
7.71492888493e-105
7.71492888499e-105
7.71492888836e-105
7.71492907841e-105
7.71493975974e-105
7.71551627437e-105
7.74669391658e-105
8.15691196445e-105
6.57205832617e-13
0.1251043982
0.734113033337
0.518108129502
0.381699864817
0.317954840845
0.291104811469
0.280006038783
0.275016600744
0.271866470904
0.269166666753
0.266616869997
0.264218143325
0.261840137589
0.259528719235
0.257343601662
0.255153733463
0.253027081885
0.250948335626
0.24891813657
0.246987456838
0.245036181964
0.243115965339
0.241233466563
0.239439071958
0.237612527011
0.23581768319
0.234045799185
0.232307914733
0.230662847219
0.228988173354
0.227347688582
0.225746786149
0.224190215053
0.222749244411
0.221291861423
0.219895655086
0.218566491756
0.217305241005
0.216116143884
0.215001902813
0.214045076952
0.213104208012
0.212261413513
0.211514573595
0.210867505628
0.210323087653
0.209883516306
0.209549836962
0.209321639647
0.209140526698
7.71492888476e-105
7.71492888476e-105
7.71492888476e-105
7.71492888476e-105
7.71492888477e-105
7.71492888477e-105
7.71492888477e-105
7.71492888477e-105
7.71492888477e-105
7.71492888477e-105
7.71492888477e-105
7.71492888478e-105
7.71492888497e-105
7.71492889589e-105
7.71492951825e-105
7.71496435264e-105
7.71687471294e-105
7.78871897457e-105
9.58762820495e-39
1.05720287825e-06
0.330798393814
0.670181213953
0.473727512986
0.3652359417
0.3163408919
0.295741861004
0.286995691215
0.282548647468
0.279307741561
0.276439611495
0.273645152894
0.270953511934
0.268400724288
0.265868636701
0.263410686381
0.261018473871
0.25874712754
0.256476004945
0.254255420721
0.252085663438
0.250024074257
0.247943509941
0.245904581692
0.243898106777
0.241993399544
0.240061034534
0.238163178027
0.236295879364
0.234538614492
0.232747677359
0.231001697116
0.229302394093
0.227650938168
0.22611577573
0.224575925591
0.223101650148
0.221696465118
0.220365236781
0.219110284365
0.218015050312
0.216938696916
0.215959416341
0.215075626778
0.214291475778
0.213613803193
0.21304555976
0.212586458087
0.212237345521
0.211997695446
0.211812903949
7.71492888462e-105
7.71492888463e-105
7.71492888463e-105
7.71492888463e-105
7.71492888463e-105
7.71492888463e-105
7.71492888463e-105
7.71492888463e-105
7.71492888463e-105
7.71492888464e-105
7.71492888464e-105
7.71492888465e-105
7.71492888546e-105
7.71492893076e-105
7.71493145856e-105
7.71506789591e-105
7.72248526784e-105
7.86750948801e-105
6.22958432471e-38
0.000171644611555
0.591451974171
0.603257583352
0.437626558778
0.354179000067
0.317375194287
0.301697485403
0.294624597133
0.290447871751
0.287017133732
0.283830472743
0.280773332316
0.277887480946
0.275042412641
0.272343315668
0.269669730441
0.267068411462
0.264542499977
0.262139058249
0.259731956152
0.257386135107
0.255156729631
0.252904135275
0.250705568066
0.248548377717
0.246499961396
0.244425188018
0.242396916626
0.240410402173
0.238529285752
0.236630080164
0.23478015964
0.232978775282
0.231303445201
0.229615220549
0.227991830468
0.226440642909
0.224964162415
0.223566459113
0.2223270356
0.221100932026
0.219976647729
0.218951200206
0.218028189692
0.217210786313
0.216503270236
0.215908258408
0.215501086025
0.21513464879
0.214883189331
0.214694744357
7.7149288845e-105
7.7149288845e-105
7.7149288845e-105
7.71492888451e-105
7.71492888451e-105
7.71492888451e-105
7.71492888451e-105
7.71492888451e-105
7.71492888451e-105
7.71492888451e-105
7.71492888452e-105
7.71492888458e-105
7.71492888808e-105
7.71492908285e-105
7.71493987467e-105
7.71551519058e-105
7.74615119743e-105
8.15321165582e-105
3.85547513781e-13
0.108574079991
0.744245736789
0.5423012662
0.410211539868
0.347590885142
0.320409508578
0.308517459809
0.302562668754
0.298443530647
0.294802460243
0.291411231108
0.288095104154
0.284952617184
0.281857286773
0.278863856482
0.276029002383
0.27321811062
0.270492831608
0.267898521035
0.265312014447
0.262783797315
0.26038527197
0.257976551774
0.255615951184
0.25331077385
0.251116065872
0.248905249551
0.246741617846
0.244695750691
0.242627278344
0.240618221901
0.23866421725
0.236763829945
0.234997140115
0.233225571599
0.231525407899
0.229894484677
0.228423363996
0.226959758166
0.225590659849
0.22431821114
0.223146103723
0.222078741282
0.221117041392
0.220344724524
0.219605129525
0.21898447869
0.218483905106
0.218103058741
0.217840488795
0.217649263856
7.71492888439e-105
7.71492888439e-105
7.71492888439e-105
7.71492888439e-105
7.7149288844e-105
7.7149288844e-105
7.7149288844e-105
7.7149288844e-105
7.7149288844e-105
7.7149288844e-105
7.71492888441e-105
7.71492888468e-105
7.71492890003e-105
7.71492975614e-105
7.71497646586e-105
7.71749016869e-105
7.79956192009e-105
1.46835626079e-38
2.15148813251e-06
0.346825958035
0.674575968074
0.492169861495
0.391509908622
0.345397436055
0.325276418405
0.316064625252
0.310742842589
0.306529294361
0.302701400065
0.298985275476
0.295469170746
0.292023656677
0.288750248073
0.285532381434
0.282410061266
0.279447333825
0.27651304991
0.273722660543
0.270953525339
0.268251840801
0.265687388907
0.263115203629
0.260605975999
0.258217489964
0.255818701177
0.253474541734
0.251180228075
0.249016933793
0.246832981829
0.244707808642
0.242644833263
0.24072037985
0.238790571284
0.236932029631
0.235151832171
0.233534089005
0.231914676584
0.23039450209
0.228969102416
0.227645553201
0.226426874439
0.225396546934
0.224398384517
0.223518051497
0.222755517745
0.222113940651
0.221594651036
0.221198317721
0.220924253919
0.220730203873
7.71492888429e-105
7.71492888429e-105
7.71492888429e-105
7.7149288843e-105
7.7149288843e-105
7.7149288843e-105
7.7149288843e-105
7.7149288843e-105
7.7149288843e-105
7.7149288843e-105
7.71492888433e-105
7.71492888575e-105
7.71492896421e-105
7.71493330447e-105
7.71516540331e-105
7.72763883226e-105
7.93930123908e-105
1.43441018631e-23
0.0051638933933
0.652578206464
0.601568552285
0.453652033067
0.379629217937
0.346609421099
0.331702268353
0.324204641068
0.319126252051
0.314714087926
0.310615809188
0.306634620312
0.302864229508
0.299166670728
0.295666258607
0.292220737631
0.288887722094
0.285720278994
0.282588636734
0.279612160258
0.276651736612
0.273774166709
0.271035757927
0.268307489579
0.265641324422
0.263114977801
0.26057878542
0.258103359556
0.255758984186
0.253404483426
0.251113763774
0.248885383767
0.246797720932
0.244701816443
0.242680500423
0.240740746084
0.238962271154
0.237190276091
0.235512593203
0.233933204085
0.232452819
0.231159969297
0.22989595662
0.228748633192
0.227719189858
0.226808931602
0.226021123847
0.225355559307
0.224901691617
0.224488669643
0.224203232686
0.224005880061
7.7149288842e-105
7.7149288842e-105
7.7149288842e-105
7.7149288842e-105
7.71492888421e-105
7.71492888421e-105
7.71492888421e-105
7.71492888421e-105
7.71492888421e-105
7.71492888421e-105
7.71492888435e-105
7.71492889172e-105
7.71492928948e-105
7.71495064112e-105
7.71605407304e-105
7.77192616725e-105
8.42408779612e-105
9.46852798038e-09
0.200289525205
0.723847600992
0.538312710149
0.426414028648
0.373753556561
0.350123750307
0.33901219245
0.332553352764
0.327472031144
0.322876329402
0.318439590015
0.314249187977
0.310164179984
0.306294611839
0.302564110958
0.298896510238
0.295356832211
0.291989140074
0.288666600157
0.285507838857
0.282374466085
0.27939594023
0.27643078997
0.273543515823
0.270800418364
0.268049919546
0.265375661367
0.262850293457
0.260314511657
0.257847244452
0.255524805333
0.253194758797
0.250938066741
0.24875504551
0.246732508012
0.244711243949
0.242782289641
0.240944367911
0.239291334096
0.237651238611
0.236118845395
0.234697665789
0.233391837579
0.23220317136
0.231223556569
0.230281529791
0.2294694681
0.228784569315
0.228228988636
0.227802915553
0.227505548302
0.227304150875
7.71492888412e-105
7.71492888412e-105
7.71492888412e-105
7.71492888412e-105
7.71492888412e-105
7.71492888412e-105
7.71492888412e-105
7.71492888413e-105
7.71492888413e-105
7.71492888415e-105
7.71492888504e-105
7.71492893369e-105
7.71493155918e-105
7.71506899403e-105
7.72226860478e-105
7.86693441283e-105
5.43719258258e-38
6.84122796156e-05
0.515393865391
0.6429182953
0.489974563445
0.409565155495
0.372852654573
0.355796087808
0.346998835355
0.340996656717
0.335827909719
0.330968803897
0.326266074846
0.3218155857
0.317471337093
0.31335711767
0.309399660967
0.30552114881
0.301846032133
0.298223763759
0.294783425438
0.291382388156
0.288076460658
0.284940933138
0.281820552635
0.278856282969
0.275899849961
0.273022183193
0.270295702838
0.267564987535
0.264905487135
0.262403677179
0.259898175979
0.257471782586
0.2552070803
0.252940825184
0.250762559347
0.248671605158
0.246762037943
0.244861275756
0.243064300682
0.241374668633
0.239794723305
0.238422895373
0.237076328162
0.23585461649
0.23475912139
0.233792491468
0.232955990901
0.232251257951
0.231676013371
0.231325184516
0.23101322572
0.230807962373
7.71492888404e-105
7.71492888404e-105
7.71492888405e-105
7.71492888405e-105
7.71492888405e-105
7.71492888405e-105
7.71492888405e-105
7.71492888405e-105
7.71492888405e-105
7.71492888416e-105
7.71492889006e-105
7.71492920523e-105
7.71494598583e-105
7.71580811275e-105
7.75941061959e-105
8.29660494471e-105
1.08853400389e-10
0.137220674067
0.745602033607
0.570308924333
0.456037495383
0.400648008825
0.375229561006
0.362807327209
0.355344863845
0.349418471844
0.34403576746
0.338919478396
0.333955938618
0.329254838918
0.324745051487
0.320343973252
0.316166614877
0.312071916568
0.308196278657
0.304381454369
0.300771224018
0.297195148833
0.293806026695
0.290443593771
0.287256345784
0.284079726598
0.280983939919
0.278061927318
0.275137160034
0.272293296912
0.26960540455
0.266920296618
0.264316949487
0.261882518581
0.259444511012
0.257094018164
0.254926070684
0.25276666129
0.250708633955
0.248753488693
0.24690403053
0.245261680748
0.24364070154
0.242138419306
0.240759834802
0.23950631714
0.238475199845
0.237484683116
0.236629402464
0.235905285664
0.235315934653
0.23486061199
0.234539787255
0.234330168569
7.71492888397e-105
7.71492888397e-105
7.71492888398e-105
7.71492888398e-105
7.71492888398e-105
7.71492888398e-105
7.71492888398e-105
7.71492888398e-105
7.714928884e-105
7.71492888487e-105
7.71492893148e-105
7.71493141092e-105
7.71505953515e-105
7.72166196135e-105
7.85985877029e-105
4.68860200981e-38
3.51638956946e-05
0.465588545516
0.663787199666
0.515070730415
0.435295430002
0.39802065373
0.380255516943
0.37053798755
0.363656038792
0.357652778306
0.352023304389
0.346653923946
0.341449632907
0.336523183327
0.331792214097
0.327175231201
0.322804214624
0.318593472812
0.314460385718
0.310542968745
0.306674580262
0.303016488965
0.299394683515
0.295963395794
0.292558377432
0.289251390709
0.286119890943
0.282993109429
0.280040744191
0.27708873228
0.274222652073
0.271532773388
0.268838712225
0.26623504791
0.263721258069
0.261392094151
0.259065452024
0.25684021154
0.254812844928
0.252799187854
0.25090504836
0.249123369467
0.247461749036
0.246021986946
0.244609942234
0.24332974757
0.242182306126
0.24116940571