/*--------------------------------*- C++ -*----------------------------------*\
| =========                 |                                                 |
| \\      /  F ield         | foam-extend: Open Source CFD                    |
|  \\    /   O peration     | Version:     4.1                                |
|   \\  /    A nd           | Web:         http://www.foam-extend.org         |
|    \\/     M anipulation  |                                                 |
\*---------------------------------------------------------------------------*/
FoamFile
{
    version     2.0;
    format      ascii;
    class       volScalarField;
    location    "0.0007";
    object      N2;
}
// * * * * * * * * * * * * * * * * * * * * * * * * * * * * * * * * * * * * * //

dimensions      [0 0 0 0 0 0 0];

internalField   nonuniform List<scalar> 
8400
(
0.767082
0.767082
0.767082
0.767082
0.767082
0.767082
0.767082
0.767082
0.767082
0.767082
0.767082
0.767082
0.767082
0.767082
0.767082
0.767082
0.767082
0.767082
0.767082
0.767082
0.767082
0.767082
0.767082
0.767082
0.75440683199
0.235317634462
8.18331416625e-05
1.14321076332e-05
4.17814631749e-06
2.6157770692e-06
2.1616355809e-06
2.01613950889e-06
1.96738804606e-06
1.94548768251e-06
1.930825774e-06
1.91839547694e-06
1.90696938875e-06
1.89619844111e-06
1.88571022422e-06
1.87535868944e-06
1.86500109347e-06
1.85462816093e-06
1.84405684673e-06
1.83486016912e-06
1.823599907e-06
1.81195979882e-06
1.79988544259e-06
1.78722954399e-06
1.77395236542e-06
1.76030559888e-06
1.74604982418e-06
1.73118385443e-06
1.71593221987e-06
1.70015095562e-06
1.68403882308e-06
1.66783206958e-06
1.65146783661e-06
1.6353162821e-06
1.61931909124e-06
1.60515522059e-06
1.59024699337e-06
1.57610200364e-06
1.56305481314e-06
1.55121613891e-06
1.54067962808e-06
1.53162718802e-06
1.52426077331e-06
1.51859835547e-06
1.51472172811e-06
1.50913212324e-06
0.767082
0.767082
0.767082
0.767082
0.767082
0.767082
0.767082
0.767082
0.767082
0.767082
0.767082
0.767082
0.767082
0.767082
0.767082
0.767082
0.767082
0.767082
0.767082
0.767082
0.767082
0.767082
0.767082
0.767028896913
0.685922311334
0.00160145499181
3.07792046833e-05
6.74606909116e-06
3.13013027104e-06
2.24498863047e-06
1.98165645435e-06
1.90312375431e-06
1.87775199743e-06
1.86634973495e-06
1.85737598182e-06
1.84867609221e-06
1.83991813365e-06
1.83091293043e-06
1.82157010134e-06
1.81186013663e-06
1.80190228168e-06
1.78997190645e-06
1.77914862667e-06
1.76789460507e-06
1.7562484513e-06
1.74402003562e-06
1.73123113e-06
1.71796341397e-06
1.7040748778e-06
1.68972426225e-06
1.67496167135e-06
1.65964286679e-06
1.64401203311e-06
1.62797285272e-06
1.61179859355e-06
1.5956188522e-06
1.57944221452e-06
1.56352247727e-06
1.54936353116e-06
1.53431191196e-06
1.51996621669e-06
1.50649369823e-06
1.4942290813e-06
1.48307660852e-06
1.47318046046e-06
1.46480779719e-06
1.45796506965e-06
1.45274373347e-06
1.44919283237e-06
1.44466138077e-06
0.767082
0.767082
0.767082
0.767082
0.767082
0.767082
0.767082
0.767082
0.767082
0.767082
0.767082
0.767082
0.767082
0.767082
0.767082
0.767082
0.767082
0.767082
0.767082
0.767082
0.767082
0.767082
0.767082
0.757357480347
0.393561097832
0.000139507809531
1.42297118894e-05
4.44899789404e-06
2.56118561608e-06
2.05025276935e-06
1.8998080618e-06
1.85608019519e-06
1.84105563236e-06
1.83372270155e-06
1.82722259938e-06
1.82053722852e-06
1.81347154744e-06
1.80444041105e-06
1.7965301537e-06
1.78806088116e-06
1.77902660419e-06
1.76953721079e-06
1.75952737792e-06
1.74887411612e-06
1.73756352275e-06
1.72572684627e-06
1.71318919612e-06
1.69997775187e-06
1.68638455032e-06
1.67216587091e-06
1.65742214754e-06
1.64226191508e-06
1.62661722638e-06
1.61090080169e-06
1.59499996678e-06
1.57910293503e-06
1.5633307211e-06
1.54774086727e-06
1.53274045923e-06
1.51822824148e-06
1.50456605368e-06
1.49185471116e-06
1.48011780978e-06
1.46956407737e-06
1.46023928466e-06
1.45225731216e-06
1.44578198733e-06
1.4409094654e-06
1.43766243799e-06
1.43382414986e-06
0.767082
0.767082
0.767082
0.767082
0.767082
0.767082
0.767082
0.767082
0.767082
0.767082
0.767082
0.767082
0.767082
0.767082
0.767082
0.767082
0.767082
0.767082
0.767082
0.767082
0.767082
0.767082
0.767082
0.759271469411
0.0614572063068
4.81953541037e-05
8.43845512118e-06
3.4420723349e-06
2.31052441514e-06
1.98139284564e-06
1.88717154794e-06
1.85771189754e-06
1.84700353436e-06
1.83945474316e-06
1.83238747972e-06
1.82513347674e-06
1.81754305068e-06
1.8095822149e-06
1.7997112495e-06
1.7909069169e-06
1.78152377003e-06
1.77160514845e-06
1.76123261758e-06
1.75020208409e-06
1.7384868282e-06
1.72622348605e-06
1.71328053211e-06
1.6996469478e-06
1.68563769766e-06
1.67104384147e-06
1.65593972033e-06
1.64047592761e-06
1.62458750569e-06
1.60867440144e-06
1.5926567691e-06
1.5766951016e-06
1.56092584304e-06
1.5454001352e-06
1.53054327088e-06
1.51765167833e-06
1.50414697681e-06
1.49168109304e-06
1.4801866799e-06
1.46985735041e-06
1.46084908716e-06
1.45319121081e-06
1.4469682196e-06
1.44223147595e-06
1.43900556353e-06
1.43547372638e-06
0.767082
0.767082
0.767082
0.767082
0.767082
0.767082
0.767082
0.767082
0.767082
0.767082
0.767082
0.767082
0.767082
0.767082
0.767082
0.767082
0.767082
0.767082
0.767082
0.767082
0.767082
0.767082
0.76658508586
0.62267649375
0.000607863993529
2.46747900411e-05
5.98952623106e-06
2.97548942504e-06
2.21119794116e-06
1.9828564821e-06
1.91537745313e-06
1.89334055038e-06
1.88215205472e-06
1.87300245334e-06
1.8640324857e-06
1.85489641194e-06
1.8455302628e-06
1.83598036204e-06
1.82603184581e-06
1.81562463546e-06
1.8048183507e-06
1.79196099385e-06
1.78008337305e-06
1.76765442281e-06
1.75475360139e-06
1.74119058813e-06
1.72705221784e-06
1.71238869198e-06
1.69711754668e-06
1.68154747718e-06
1.66550883962e-06
1.65057027429e-06
1.63397236397e-06
1.61717406797e-06
1.60062271056e-06
1.58410667867e-06
1.56793195356e-06
1.55215899448e-06
1.53691931129e-06
1.52246657282e-06
1.50878760911e-06
1.49618458404e-06
1.48469384051e-06
1.47434597247e-06
1.46530433502e-06
1.4577089475e-06
1.45154401314e-06
1.44685792854e-06
1.44367400504e-06
1.44024701077e-06
0.767082
0.767082
0.767082
0.767082
0.767082
0.767082
0.767082
0.767082
0.767082
0.767082
0.767082
0.767082
0.767082
0.767082
0.767082
0.767082
0.767082
0.767082
0.767082
0.767082
0.767082
0.767082
0.758279017632
0.420533171439
0.000159253677107
1.54522463301e-05
4.79968725431e-06
2.75498543019e-06
2.19929368668e-06
2.03034596064e-06
1.97819483334e-06
1.95631581231e-06
1.94270988254e-06
1.93031088457e-06
1.91822560225e-06
1.90615499174e-06
1.89391809423e-06
1.88158088917e-06
1.86909074471e-06
1.85622818384e-06
1.84303377312e-06
1.82950771105e-06
1.81545130596e-06
1.80092842854e-06
1.7859168599e-06
1.77029785923e-06
1.75437713206e-06
1.73793519515e-06
1.72105467375e-06
1.70382026552e-06
1.68618947428e-06
1.66853904392e-06
1.65064339411e-06
1.63283929223e-06
1.61504173364e-06
1.59761262825e-06
1.58053877584e-06
1.56401780571e-06
1.54822465535e-06
1.53315876303e-06
1.51912777131e-06
1.50605421429e-06
1.49414351625e-06
1.48358994996e-06
1.47567528005e-06
1.4678218379e-06
1.46147585341e-06
1.45673272311e-06
1.45351259153e-06
1.44880399305e-06
0.767082
0.767082
0.767082
0.767082
0.767082
0.767082
0.767082
0.767082
0.767082
0.767082
0.767082
0.767082
0.767082
0.767082
0.767082
0.767082
0.767082
0.767082
0.767082
0.767082
0.767082
0.767082
0.754455843826
0.203906729147
7.38423372967e-05
1.09780319089e-05
4.15054127428e-06
2.67123950979e-06
2.24073396187e-06
2.11025739162e-06
2.06612428852e-06
2.04210528723e-06
2.02455476106e-06
2.00803284434e-06
1.99201427705e-06
1.97605022689e-06
1.96024527812e-06
1.94448104071e-06
1.92851319565e-06
1.91248823411e-06
1.89614239139e-06
1.87953304521e-06
1.86270453339e-06
1.84539066075e-06
1.82785207693e-06
1.8098163165e-06
1.79141880611e-06
1.77263093254e-06
1.75355450557e-06
1.73431043357e-06
1.71480777717e-06
1.69523691944e-06
1.6756227209e-06
1.65628639183e-06
1.63706808912e-06
1.61979356483e-06
1.60142140993e-06
1.58382727339e-06
1.56690087043e-06
1.55106169817e-06
1.53621975088e-06
1.52249301312e-06
1.51008029173e-06
1.49895991425e-06
1.48923284677e-06
1.48116424761e-06
1.47462137605e-06
1.46965516821e-06
1.46628829978e-06
1.46294356894e-06
0.767082
0.767082
0.767082
0.767082
0.767082
0.767082
0.767082
0.767082
0.767082
0.767082
0.767082
0.767082
0.767082
0.767082
0.767082
0.767082
0.767082
0.767082
0.767082
0.767082
0.767082
0.767079326813
0.743233743563
0.0132989298204
4.25048205791e-05
8.50851470441e-06
3.7895867314e-06
2.66116028142e-06
2.32420501284e-06
2.21700774855e-06
2.17475132802e-06
2.14755822685e-06
2.12558572475e-06
2.10445937161e-06
2.08380439699e-06
2.06337316066e-06
2.04322453792e-06
2.02324936578e-06
2.00326284908e-06
1.98329945042e-06
1.96315344844e-06
1.94309552041e-06
1.92268541785e-06
1.90216367536e-06
1.88122975378e-06
1.86026687792e-06
1.83891774224e-06
1.81747659318e-06
1.79729731574e-06
1.77549589464e-06
1.75352365887e-06
1.73184089711e-06
1.71014293849e-06
1.68879003004e-06
1.66772617093e-06
1.64736741722e-06
1.62756420554e-06
1.60864168316e-06
1.59050529415e-06
1.57348726638e-06
1.55753464831e-06
1.54303776747e-06
1.52989715781e-06
1.51811575921e-06
1.50932073072e-06
1.50072403035e-06
1.49376027161e-06
1.48847832193e-06
1.48491177094e-06
1.4815096993e-06
0.767082
0.767082
0.767082
0.767082
0.767082
0.767082
0.767082
0.767082
0.767082
0.767082
0.767082
0.767082
0.767082
0.767082
0.767082
0.767082
0.767082
0.767082
0.767082
0.767082
0.767082
0.766616769926
0.628190867425
0.000714651824681
2.77532454001e-05
7.02224079966e-06
3.60245357212e-06
2.71289277746e-06
2.4399275433e-06
2.34576640563e-06
2.3044412188e-06
2.2741428465e-06
2.24677222209e-06
2.21843066328e-06
2.19244541197e-06
2.16709353269e-06
2.14196346988e-06
2.11727939622e-06
2.09438716736e-06
2.06993770539e-06
2.04542381746e-06
2.02115277713e-06
1.99670449562e-06
1.97221892753e-06
1.94763653203e-06
1.92304317939e-06
1.89838664121e-06
1.87360177503e-06
1.8488436149e-06
1.82400352923e-06
1.79951915481e-06
1.7751204773e-06
1.75099853061e-06
1.72737991573e-06
1.70425199678e-06
1.68341844115e-06
1.66176116885e-06
1.64122007723e-06
1.6215824142e-06
1.60323044908e-06
1.58606531878e-06
1.57046771551e-06
1.55637020463e-06
1.54379592522e-06
1.53297830955e-06
1.52382247173e-06
1.51639127822e-06
1.51073766982e-06
1.50689405156e-06
1.50342258066e-06
0.767082
0.767082
0.767082
0.767082
0.767082
0.767082
0.767082
0.767082
0.767082
0.767082
0.767082
0.767082
0.767082
0.767082
0.767082
0.767082
0.767082
0.767082
0.767082
0.767082
0.767082
0.760253383746
0.477067225609
0.000228056230023
1.95984404187e-05
6.10875668749e-06
3.53363681441e-06
2.8192714871e-06
2.58852306954e-06
2.50304467628e-06
2.45758332835e-06
2.42066475872e-06
2.38639209626e-06
2.35338678668e-06
2.32110147754e-06
2.28951586013e-06
2.25862991653e-06
2.22817011415e-06
2.1982058833e-06
2.16853280851e-06
2.13918806501e-06
2.11013278651e-06
2.08109416425e-06
2.05220728875e-06
2.02341486514e-06
1.9947055621e-06
1.966137224e-06
1.93760033989e-06
1.90932571713e-06
1.88296374301e-06
1.85516011863e-06
1.82792309139e-06
1.80106358588e-06
1.77472172961e-06
1.74931383663e-06
1.72465566495e-06
1.70101660045e-06
1.67848047393e-06
1.65722946981e-06
1.63731482013e-06
1.62034729438e-06
1.60338550169e-06
1.58823885785e-06
1.5747450416e-06
1.56311314355e-06
1.55336025448e-06
1.54545760669e-06
1.53944201153e-06
1.5353327377e-06
1.53166624048e-06
0.767082
0.767082
0.767082
0.767082
0.767082
0.767082
0.767082
0.767082
0.767082
0.767082
0.767082
0.767082
0.767082
0.767082
0.767082
0.767082
0.767082
0.767082
0.767082
0.767082
0.767082
0.754751646498
0.291535439702
0.00010777627504
1.47595499303e-05
5.54287433799e-06
3.55313707589e-06
2.96899444129e-06
2.77030378225e-06
2.6875362167e-06
2.63527535391e-06
2.59007983672e-06
2.54738945934e-06
2.50631815601e-06
2.46647939945e-06
2.42762591875e-06
2.38998650295e-06
2.35310843539e-06
2.31686039671e-06
2.28124972775e-06
2.24621648267e-06
2.21158173243e-06
2.17727718405e-06
2.14535192361e-06
2.11164198844e-06
2.07841916697e-06
2.04545533052e-06
2.01276792351e-06
1.98052853564e-06
1.94883632694e-06
1.91753610085e-06
1.88670695125e-06
1.85685401348e-06
1.82944478496e-06
1.80110232294e-06
1.77409103369e-06
1.74816172967e-06
1.72356086158e-06
1.70035216672e-06
1.67859867344e-06
1.65867077898e-06
1.64043020432e-06
1.62403122203e-06
1.60950493712e-06
1.59682225345e-06
1.58794362787e-06
1.57940714706e-06
1.57294768654e-06
1.56855410512e-06
1.56477992443e-06
0.767082
0.767082
0.767082
0.767082
0.767082
0.767082
0.767082
0.767082
0.767082
0.767082
0.767082
0.767082
0.767082
0.767082
0.767082
0.767082
0.767082
0.767082
0.767082
0.767082
0.767082
0.759068057632
0.088782942932
6.11297088504e-05
1.16723780006e-05
5.18819321427e-06
3.64369384622e-06
3.16181108758e-06
2.98562227532e-06
2.90027710267e-06
2.83869700387e-06
2.78323199189e-06
2.73067524295e-06
2.68009154875e-06
2.63142391425e-06
2.58444532042e-06
2.53867650845e-06
2.49415709931e-06
2.45275727331e-06
2.41023587312e-06
2.36858563099e-06
2.3277684645e-06
2.28757358557e-06
2.24789093496e-06
2.20902136017e-06
2.17073274227e-06
2.13286067896e-06
2.09743084406e-06
2.06069459717e-06
2.02480966232e-06
1.9896583008e-06
1.95528341846e-06
1.92180543105e-06
1.8895038702e-06
1.8583364372e-06
1.82839529124e-06
1.80165156313e-06
1.77459083904e-06
1.74929694106e-06
1.72577472981e-06
1.70404708852e-06
1.68430201482e-06
1.66649563132e-06
1.65081127133e-06
1.63731989928e-06
1.62593639283e-06
1.61674867892e-06
1.60986691213e-06
1.60516448697e-06
1.6012516039e-06
0.767082
0.767082
0.767082
0.767082
0.767082
0.767082
0.767082
0.767082
0.767082
0.767082
0.767082
0.767082
0.767082
0.767082
0.767082
0.767082
0.767082
0.767082
0.767082
0.767082
0.766991242241
0.677219967866
0.00195064292041
3.83564043644e-05
9.68036863526e-06
5.0216265667e-06
3.79251695087e-06
3.38965442442e-06
3.2316490598e-06
3.14028247114e-06
3.06786722253e-06
3.00090319363e-06
2.9371378415e-06
2.87599348454e-06
2.81929336635e-06
2.76234241642e-06
2.70740918955e-06
2.65414662353e-06
2.60235722842e-06
2.5520814417e-06
2.50292354702e-06
2.45509690218e-06
2.4103033917e-06
2.36440499292e-06
2.31936729189e-06
2.27512282662e-06
2.23184489091e-06
2.18956447559e-06
2.14806694012e-06
2.10753588075e-06
2.06995377538e-06
2.0313913308e-06
1.99426895591e-06
1.95847381185e-06
1.92399232793e-06
1.89096192138e-06
1.85974759473e-06
1.83028988498e-06
1.80432130805e-06
1.77867960484e-06
1.75503607989e-06
1.73353819183e-06
1.71429371132e-06
1.69741769923e-06
1.6827651946e-06
1.67057963229e-06
1.66073363391e-06
1.6532372303e-06
1.6481122458e-06
1.64397662939e-06
0.767082
0.767082
0.767082
0.767082
0.767082
0.767082
0.767082
0.767082
0.767082
0.767082
0.767082
0.767082
0.767082
0.767082
0.767082
0.767082
0.767082
0.767082
0.767082
0.767082
0.762259389985
0.5248517383
0.000351129841068
2.62536603476e-05
8.42815352809e-06
4.99518334327e-06
4.01403035066e-06
3.66607273065e-06
3.51478692823e-06
3.41189779762e-06
3.32565821701e-06
3.24728951752e-06
3.17040006198e-06
3.09661838884e-06
3.02600819389e-06
2.95792129889e-06
2.89258982807e-06
2.82949713865e-06
2.7707175385e-06
2.71130557364e-06
2.6538486763e-06
2.59781539613e-06
2.54346932407e-06
2.49052069004e-06
2.43871126329e-06
2.39039062729e-06
2.34101042869e-06
2.29287831216e-06
2.24609186275e-06
2.20054108762e-06
2.15621760919e-06
2.11346731918e-06
2.07418467584e-06
2.03439633692e-06
1.99634086499e-06
1.96014174893e-06
1.92590539325e-06
1.89364808678e-06
1.86342648607e-06
1.83738745592e-06
1.81170247324e-06
1.78829970485e-06
1.76758171969e-06
1.74923200159e-06
1.73348740487e-06
1.72028334547e-06
1.70959387466e-06
1.70146162375e-06
1.69596685263e-06
1.69167095443e-06
0.767082
0.767082
0.767082
0.767082
0.767082
0.767082
0.767082
0.767082
0.767082
0.767082
0.767082
0.767082
0.767082
0.767082
0.767082
0.767082
0.767082
0.767082
0.767082
0.767082
0.754969779367
0.323114797589
0.000138817639983
1.93290016314e-05
7.68116974627e-06
5.10043012951e-06
4.29755114409e-06
3.99347952541e-06
3.83630433654e-06
3.72067647782e-06
3.61686623915e-06
3.51975731811e-06
3.42726105748e-06
3.3391808944e-06
3.25495069874e-06
3.1770429326e-06
3.09963970014e-06
3.02519379625e-06
2.95360290703e-06
2.88429737097e-06
2.8173710144e-06
2.75482011887e-06
2.69195603573e-06
2.63077712952e-06
2.57151037201e-06
2.51393457043e-06
2.46013820433e-06
2.4057842388e-06
2.35313625664e-06
2.30201512665e-06
2.25269116987e-06
2.20516151731e-06
2.15933167418e-06
2.11749533326e-06
2.07550520604e-06
2.03575881559e-06
1.99833830756e-06
1.96319030418e-06
1.93032523142e-06
1.89980827758e-06
1.87402431222e-06
1.84876635177e-06
1.82635541764e-06
1.80649035396e-06
1.78946477231e-06
1.77511353392e-06
1.7635173583e-06
1.75486621666e-06
1.74893766522e-06
1.74443532387e-06
0.767082
0.767082
0.767082
0.767082
0.767082
0.767082
0.767082
0.767082
0.767082
0.767082
0.767082
0.767082
0.767082
0.767082
0.767082
0.767082
0.767082
0.767082
0.767082
0.767081732633
0.759224614117
0.0913756581217
7.10556578585e-05
1.50318884337e-05
7.26009921316e-06
5.30576198832e-06
4.64817933254e-06
4.3645511028e-06
4.19932249685e-06
4.06348031158e-06
3.93908056507e-06
3.82213177906e-06
3.71475498648e-06
3.6097202705e-06
3.51013699156e-06
3.4150903129e-06
3.32410151248e-06
3.23960755735e-06
3.15602109077e-06
3.07554274427e-06
2.99807629233e-06
2.92329135073e-06
2.85368601248e-06
2.78367183468e-06
2.71609053143e-06
2.6507305823e-06
2.58730454491e-06
2.52842100635e-06
2.4692522086e-06
2.41216706455e-06
2.35710119489e-06
2.30436290613e-06
2.25376305045e-06
2.20749187363e-06
2.16155374759e-06
2.11796738788e-06
2.07700078684e-06
2.0386552794e-06
2.00293291001e-06
1.96998285318e-06
1.94184105337e-06
1.9144350166e-06
1.89023615301e-06
1.86883121595e-06
1.85052702282e-06
1.83510134086e-06
1.82268043601e-06
1.81333324175e-06
1.8069160043e-06
1.80217104582e-06
0.767082
0.767082
0.767082
0.767082
0.767082
0.767082
0.767082
0.767082
0.767082
0.767082
0.767082
0.767082
0.767082
0.767082
0.767082
0.767082
0.767082
0.767082
0.767082
0.766610383066
0.640471807982
0.00134367726219
4.24658225621e-05
1.24597901835e-05
7.10441014732e-06
5.60229446845e-06
5.04894941834e-06
4.78322310147e-06
4.60062126171e-06
4.44183685708e-06
4.29441282043e-06
4.15910293228e-06
4.02829503469e-06
3.90438377038e-06
3.78987520867e-06
3.67808765136e-06
3.57181376224e-06
3.4703287748e-06
3.37351526422e-06
3.28326271111e-06
3.19404727928e-06
3.10828489282e-06
3.02592501204e-06
2.94895505017e-06
2.87223725119e-06
2.79836494572e-06
2.72704336363e-06
2.65846108547e-06
2.5947305699e-06
2.53114523938e-06
2.47003105798e-06
2.41150395663e-06
2.35566141405e-06
2.30480773836e-06
2.25428179774e-06
2.20664646541e-06
2.16198791046e-06
2.12023863014e-06
2.08149127314e-06
2.04573482344e-06
2.01528321549e-06
1.98570405341e-06
1.95955211993e-06
1.93646409378e-06
1.91674855062e-06
1.90017714435e-06
1.88679360345e-06
1.87673644454e-06
1.86980739298e-06
1.86479565423e-06
0.767082
0.767082
0.767082
0.767082
0.767082
0.767082
0.767082
0.767082
0.767082
0.767082
0.767082
0.767082
0.767082
0.767082
0.767082
0.767082
0.767082
0.767082
0.767082
0.757568824328
0.435234694372
0.000259718790571
2.84658767915e-05
1.09824615949e-05
7.19189045974e-06
6.00677386841e-06
5.52318644929e-06
5.25333271524e-06
5.04513059087e-06
4.86180601248e-06
4.6876149209e-06
4.52436432147e-06
4.37385222466e-06
4.22867519957e-06
4.0913368605e-06
3.96136220799e-06
3.84077058192e-06
3.72343695313e-06
3.61138882722e-06
3.50455607614e-06
3.40536250286e-06
3.30744928049e-06
3.21373160703e-06
3.1236453997e-06
3.03989219514e-06
2.95677031182e-06
2.87697908775e-06
2.80018746601e-06
2.72930105847e-06
2.65856736715e-06
2.59097545945e-06
2.52650422567e-06
2.46508602349e-06
2.40898656602e-06
2.35381296153e-06
2.30189243527e-06
2.25325551574e-06
2.20792410944e-06
2.16581552118e-06
2.12945960417e-06
2.09418525535e-06
2.06258253707e-06
2.03428496477e-06
2.00943731283e-06
1.98810984317e-06
1.97036234051e-06
1.9559950155e-06
1.94509577705e-06
1.93762399501e-06
1.93232949997e-06
0.767082
0.767082
0.767082
0.767082
0.767082
0.767082
0.767082
0.767082
0.767082
0.767082
0.767082
0.767082
0.767082
0.767082
0.767082
0.767082
0.767082
0.767082
0.767082
0.756233621328
0.174647961466
0.000104195162284
2.09242339139e-05
1.02049822151e-05
7.47223146765e-06
6.51500531627e-06
6.06994420761e-06
5.78196633259e-06
5.53975273406e-06
5.31917393513e-06
5.1138626849e-06
4.92571615527e-06
4.74587196842e-06
4.58012316067e-06
4.42092053725e-06
4.27023504053e-06
4.12792042787e-06
3.99613433195e-06
3.86751861197e-06
3.74563392757e-06
3.6323940923e-06
3.52107246372e-06
3.41497784542e-06
3.31334132268e-06
3.21913094268e-06
3.12585202983e-06
3.03667656153e-06
2.95149298061e-06
2.87246242762e-06
2.79439884917e-06
2.71994214401e-06
2.64912027356e-06
2.58443824428e-06
2.52060528376e-06
2.46036231536e-06
2.40386251548e-06
2.35101338557e-06
2.30182803948e-06
2.25876853938e-06
2.21689648663e-06
2.17903696728e-06
2.14487282405e-06
2.11442769725e-06
2.08783557914e-06
2.06489083238e-06
2.04579174636e-06
2.03265113896e-06
2.0208652919e-06
2.01270198252e-06
2.00706937799e-06
0.767082
0.767082
0.767082
0.767082
0.767082
0.767082
0.767082
0.767082
0.767082
0.767082
0.767082
0.767082
0.767082
0.767082
0.767082
0.767082
0.767082
0.767082
0.766746919238
0.656920149739
0.00247007478621
5.50213729455e-05
1.67688781154e-05
9.90001652392e-06
7.90191710798e-06
7.10686507211e-06
6.67546212788e-06
6.35649042436e-06
6.07571574994e-06
5.82151925242e-06
5.58144289632e-06
5.36134790837e-06
5.1518272214e-06
4.95564906771e-06
4.77525666744e-06
4.60184349628e-06
4.43879183297e-06
4.28788564911e-06
4.1415844229e-06
4.00280413605e-06
3.87437812974e-06
3.74899575444e-06
3.62926198113e-06
3.51540594618e-06
3.40952850742e-06
3.30574679681e-06
3.20649754958e-06
3.11485007082e-06
3.02443338176e-06
2.93847246824e-06
2.85675910833e-06
2.77915683556e-06
2.70837341921e-06
2.63890122477e-06
2.57354308572e-06
2.51205524257e-06
2.45750783619e-06
2.40427162727e-06
2.35525012223e-06
2.31035558568e-06
2.2695350525e-06
2.23286963234e-06
2.20028075997e-06
2.17415728655e-06
2.14957676276e-06
2.12893668838e-06
2.11238071434e-06
2.09981319459e-06
2.09106728793e-06
2.08509051001e-06
0.767082
0.767082
0.767082
0.767082
0.767082
0.767082
0.767082
0.767082
0.767082
0.767082
0.767082
0.767082
0.767082
0.767082
0.767082
0.767082
0.767082
0.767082
0.756544970692
0.41922093376
0.000284365361279
3.47951122274e-05
1.46261110559e-05
1.00186522552e-05
8.48468367525e-06
7.78667181175e-06
7.3429916056e-06
6.98121955662e-06
6.65982440172e-06
6.35905549877e-06
6.08457828259e-06
5.82546266422e-06
5.58779133849e-06
5.36223291709e-06
5.15073304253e-06
4.95637229717e-06
4.77005877864e-06
4.59802407416e-06
4.432358793e-06
4.27559765157e-06
4.1309392995e-06
3.98985644432e-06
3.85623444347e-06
3.73219782354e-06
3.61115334033e-06
3.49588033431e-06
3.38602788272e-06
3.28477557621e-06
3.1853814619e-06
3.09082998607e-06
3.00122124007e-06
2.91951775964e-06
2.839364161e-06
2.76374000403e-06
2.69281060646e-06
2.62951499613e-06
2.56749079763e-06
2.51023935586e-06
2.45752470535e-06
2.40934658237e-06
2.36560820028e-06
2.32895604932e-06
2.29394599172e-06
2.2634448969e-06
2.23711343582e-06
2.21523692079e-06
2.19751889728e-06
2.18392696036e-06
2.17452323136e-06
2.16824015787e-06
0.767082
0.767082
0.767082
0.767082
0.767082
0.767082
0.767082
0.767082
0.767082
0.767082
0.767082
0.767082
0.767082
0.767082
0.767082
0.767082
0.767082
0.767080389945
0.757593879989
0.113321612731
0.000104535524024
2.51838763842e-05
1.36070258942e-05
1.04534895887e-05
9.219001717e-06
8.55824226944e-06
8.07755896067e-06
7.66154911168e-06
7.28791909758e-06
6.94006823493e-06
6.62320054526e-06
6.32466437681e-06
6.05251711467e-06
5.7945126846e-06
5.55370656012e-06
5.33256064188e-06
5.121396375e-06
4.92697990547e-06
4.73984088828e-06
4.56365929327e-06
4.40105726882e-06
4.24377288977e-06
4.09441798113e-06
3.95695237507e-06
3.82282039785e-06
3.69549884184e-06
3.57807153594e-06
3.46323901933e-06
3.35444052928e-06
3.25128137737e-06
3.15675760601e-06
3.06442490924e-06
2.97730385555e-06
2.89548078256e-06
2.82198276245e-06
2.75041456816e-06
2.68391513244e-06
2.62241566523e-06
2.56577912172e-06
2.51694101219e-06
2.47006541822e-06
2.42807316935e-06
2.39077149823e-06
2.35812032827e-06
2.33016866548e-06
2.3066591461e-06
2.2905131145e-06
2.27602504806e-06
2.26588390191e-06
2.2591610513e-06
0.767082
0.767082
0.767082
0.767082
0.767082
0.767082
0.767082
0.767082
0.767082
0.767082
0.767082
0.767082
0.767082
0.767082
0.767082
0.767082
0.767082
0.762879762991
0.565511851671
0.000918780612566
5.46797567129e-05
2.04180379613e-05
1.33808393865e-05
1.1100074526e-05
1.00601310512e-05
9.39808197047e-06
8.86156291362e-06
8.38917236139e-06
7.95264522947e-06
7.55778810252e-06
7.18904272779e-06
6.85401484447e-06
6.54370084536e-06
6.25044553944e-06
5.97804459664e-06
5.72823555583e-06
5.49059150533e-06
5.27217162687e-06
5.06291946712e-06
4.87022868341e-06
4.68484867645e-06
4.50996170626e-06
4.34866852421e-06
4.19182536915e-06
4.043928481e-06
3.90798515229e-06
3.77524311611e-06
3.64987968001e-06
3.53459440123e-06
3.4223610239e-06
3.31616693825e-06
3.21618917761e-06
3.12555949264e-06
3.03705772472e-06
2.9545215233e-06
2.87761567108e-06
2.80963121803e-06
2.74356063113e-06
2.68291640227e-06
2.62757673094e-06
2.57745862558e-06
2.53253103698e-06
2.49585983253e-06
2.46093985921e-06
2.43116366694e-06
2.40609419282e-06
2.3859552499e-06
2.37042455738e-06
2.35945973847e-06
2.35225825187e-06
0.767082
0.767082
0.767082
0.767082
0.767082
0.767082
0.767082
0.767082
0.767082
0.767082
0.767082
0.767082
0.767082
0.767082
0.767082
0.767082
0.767082
0.754883050243
0.250749351891
0.000178320112244
3.56971623547e-05
1.82863402309e-05
1.37479789317e-05
1.19743469969e-05
1.10097625322e-05
1.03053174485e-05
9.70408220841e-06
9.16220753712e-06
8.66266502256e-06
8.21147943055e-06
7.79095298258e-06
7.41004843393e-06
7.0583457821e-06
6.72812181898e-06
6.42704614837e-06
6.14180314733e-06
5.88069705124e-06
5.63218366376e-06
5.39915725894e-06
5.18543099858e-06
4.98000726437e-06
4.79114055046e-06
4.60892446419e-06
4.43707206528e-06
4.27899200076e-06
4.12547585299e-06
3.98053766696e-06
3.84770801624e-06
3.7185116447e-06
3.59675719118e-06
3.48587585549e-06
3.37783821921e-06
3.27659978222e-06
3.18164161418e-06
3.09674932769e-06
3.01430194835e-06
2.93788744069e-06
2.86740825365e-06
2.80272292366e-06
2.74734427324e-06
2.69392356384e-06
2.64605660987e-06
2.60379345657e-06
2.5668345533e-06
2.5350460826e-06
2.50852320207e-06
2.48693171988e-06
2.47350009355e-06
2.4616743242e-06
2.45408138238e-06
0.767082
0.767082
0.767082
0.767082
0.767082
0.767082
0.767082
0.767082
0.767082
0.767082
0.767082
0.767082
0.767082
0.767082
0.767082
0.767082
0.765802782093
0.628388671838
0.00284563485045
7.68664415681e-05
2.72868761373e-05
1.75967843206e-05
1.44768908786e-05
1.30117579951e-05
1.20520414529e-05
1.12730253913e-05
1.05906424155e-05
9.97385981452e-06
9.40604187144e-06
8.89434789511e-06
8.42636880897e-06
7.9909106605e-06
7.59563208742e-06
7.22473372748e-06
6.88804577034e-06
6.5699765765e-06
6.28006451031e-06
6.00408791792e-06
5.7519400585e-06
5.51095195877e-06
5.29009752127e-06
5.07770547378e-06
4.87763929043e-06
4.69468092365e-06
4.51760520749e-06
4.35073303222e-06
4.19748994034e-06
4.04907603971e-06
3.90941975474e-06
3.78208312653e-06
3.65838582281e-06
3.5420451334e-06
3.43740463329e-06
3.33567093504e-06
3.24089966797e-06
3.152992802e-06
3.07156780528e-06
3.00049408561e-06
2.93178321356e-06
2.86916871252e-06
2.81259361452e-06
2.76185792572e-06
2.72049079644e-06
2.68135732449e-06
2.64768392768e-06
2.61955018361e-06
2.59659727226e-06
2.57883824656e-06
2.56627858144e-06
2.55813903601e-06
0.767082
0.767082
0.767082
0.767082
0.767082
0.767082
0.767082
0.767082
0.767082
0.767082
0.767082
0.767082
0.767082
0.767082
0.767082
0.767082
0.754395735414
0.300540542683
0.000246675766308
4.61314549996e-05
2.37252668494e-05
1.78638015825e-05
1.55218077e-05
1.41657359111e-05
1.31508440306e-05
1.22838715933e-05
1.1511550251e-05
1.08145133548e-05
1.01752696671e-05
9.60095240778e-06
9.07658087883e-06
8.58955959876e-06
8.14919706603e-06
7.74412397877e-06
7.36354053635e-06
7.01792249158e-06
6.69050451079e-06
6.3925775312e-06
6.10935345176e-06
5.85048477155e-06
5.60309246733e-06
5.37132284681e-06
5.15916977248e-06
4.95466086075e-06
4.76752020043e-06
4.586513968e-06
4.41649828835e-06
4.26147235973e-06
4.11082113025e-06
3.96946863411e-06
3.83684061404e-06
3.71699752101e-06
3.60058588004e-06
3.49198722345e-06
3.39507986797e-06
3.30133581371e-06
3.21494878976e-06
3.13529245897e-06
3.0624030075e-06
3.00015203913e-06
2.94019700558e-06
2.88654355413e-06
2.83906331278e-06
2.79769104957e-06
2.76203887193e-06
2.73230286762e-06
2.71170937723e-06
2.69280398514e-06
2.67934574695e-06
2.67064951299e-06
0.767082
0.767082
0.767082
0.767082
0.767082
0.767082
0.767082
0.767082
0.767082
0.767082
0.767082
0.767082
0.767082
0.767082
0.767082
0.765406824724
0.627326754659
0.00407846723293
9.31527767219e-05
3.42298668552e-05
2.26230442001e-05
1.87118545145e-05
1.67536650595e-05
1.54046592878e-05
1.43015681865e-05
1.33302735419e-05
1.24608061191e-05
1.1678359715e-05
1.09712721698e-05
1.03232141777e-05
9.74043549751e-06
9.20867342148e-06
8.71429726281e-06
8.26745166176e-06
7.84849241705e-06
7.46865495972e-06
7.11679558178e-06
6.78385808127e-06
6.48068065409e-06
6.19197875821e-06
5.92247049035e-06
5.67639123932e-06
5.44057020475e-06
5.22541048427e-06
5.01790807779e-06
4.82326059309e-06
4.64565071827e-06
4.47376359219e-06
4.31261192964e-06
4.16657079531e-06
4.02467990606e-06
3.89249329113e-06
3.77322253901e-06
3.65809178983e-06
3.5507680146e-06
3.45136460503e-06
3.36424902102e-06
3.2800373924e-06
3.20290209155e-06
3.13281429254e-06
3.06950087926e-06
3.01739341009e-06
2.96718307451e-06
2.92344690426e-06
2.8857043555e-06
2.85417210151e-06
2.82831714694e-06
2.80827661257e-06
2.79378935632e-06
2.78444230771e-06
0.767082
0.767082
0.767082
0.767082
0.767082
0.767082
0.767082
0.767082
0.767082
0.767082
0.767082
0.767082
0.767082
0.767082
0.767082
0.755379181314
0.266521430926
0.000258575283413
5.42442144809e-05
2.96681202222e-05
2.2877935543e-05