/*--------------------------------*- C++ -*----------------------------------*\
| =========                 |                                                 |
| \\      /  F ield         | foam-extend: Open Source CFD                    |
|  \\    /   O peration     | Version:     4.1                                |
|   \\  /    A nd           | Web:         http://www.foam-extend.org         |
|    \\/     M anipulation  |                                                 |
\*---------------------------------------------------------------------------*/
FoamFile
{
    version     2.0;
    format      ascii;
    class       volScalarField;
    location    "0.0007";
    object      N2Plus;
}
// * * * * * * * * * * * * * * * * * * * * * * * * * * * * * * * * * * * * * //

dimensions      [0 0 0 0 0 0 0];

internalField   nonuniform List<scalar> 
8400
(
7.21720708321e-185
7.21720708325e-185
7.21720708329e-185
7.21720708333e-185
7.21720708337e-185
7.21720708341e-185
7.21720708345e-185
7.21720708348e-185
7.21720708352e-185
7.21720708356e-185
7.21720708359e-185
7.21720708363e-185
7.21720708366e-185
7.21720708369e-185
7.21720708373e-185
7.21720708376e-185
7.2172070838e-185
7.21720708417e-185
7.2172071041e-185
7.21720825643e-185
7.21727273195e-185
7.2209166035e-185
7.31046488118e-185
3.32930648128e-71
1.58840125008e-16
1.3803131774e-05
1.85778490548e-05
1.21985981923e-05
9.45280247898e-06
8.51877414969e-06
8.23209104823e-06
8.12742036605e-06
8.07649235989e-06
8.0410042424e-06
8.01076052808e-06
7.9831380664e-06
7.95724288325e-06
7.932591084e-06
7.90867993126e-06
7.88519979782e-06
7.86183289192e-06
7.83836174534e-06
7.81453047404e-06
7.79364502202e-06
7.76850466968e-06
7.74244418456e-06
7.71530964479e-06
7.68695487212e-06
7.6572841523e-06
7.62648711898e-06
7.59432873071e-06
7.56082561983e-06
7.52609724828e-06
7.49022504429e-06
7.45350278798e-06
7.41627785255e-06
7.378679983e-06
7.34118820521e-06
7.30407509836e-06
7.27101150034e-06
7.23608114902e-06
7.20290823857e-06
7.17206713906e-06
7.14396820246e-06
7.11900414515e-06
7.09756720488e-06
7.08003063967e-06
7.06664799969e-06
7.05762930033e-06
7.05085735911e-06
7.2172070713e-185
7.21720707131e-185
7.21720707133e-185
7.21720707135e-185
7.21720707136e-185
7.21720707138e-185
7.21720707139e-185
7.21720707141e-185
7.21720707142e-185
7.21720707144e-185
7.21720707145e-185
7.21720707147e-185
7.21720707148e-185
7.21720707149e-185
7.21720707151e-185
7.21720707152e-185
7.21720707157e-185
7.21720707335e-185
7.21720717632e-185
7.21721315028e-185
7.21754475823e-185
7.23627455025e-185
7.51050956222e-185
7.91847632485e-36
8.45354002229e-08
2.54776546602e-05
1.53386044725e-05
1.05785986011e-05
8.7245121356e-06
8.15514694865e-06
7.99344885461e-06
7.94260578147e-06
7.91955619576e-06
7.90471101045e-06
7.89029739661e-06
7.87534137529e-06
7.85971546178e-06
7.84328738602e-06
7.82597253094e-06
7.80771004464e-06
7.78846770759e-06
7.76476128278e-06
7.74323488536e-06
7.72052405677e-06
7.69660410496e-06
7.67125209266e-06
7.64441895951e-06
7.61607996437e-06
7.58618958925e-06
7.55490358519e-06
7.52229280085e-06
7.48828850067e-06
7.45307200535e-06
7.41677833477e-06
7.37982376381e-06
7.34248312484e-06
7.30494405422e-06
7.26759666959e-06
7.23430302984e-06
7.19860886312e-06
7.1643661846e-06
7.13207029733e-06
7.10231546142e-06
7.07527374337e-06
7.05132749846e-06
7.03086690259e-06
7.0141616003e-06
7.00145201791e-06
6.99289082853e-06
6.98666525571e-06
7.21720706573e-185
7.21720706574e-185
7.21720706575e-185
7.21720706576e-185
7.21720706577e-185
7.21720706578e-185
7.21720706579e-185
7.2172070658e-185
7.21720706581e-185
7.21720706582e-185
7.21720706582e-185
7.21720706583e-185
7.21720706584e-185
7.21720706585e-185
7.21720706586e-185
7.21720706587e-185
7.21720706602e-185
7.21720707417e-185
7.21720755333e-185
7.21723521321e-185
7.21880480948e-185
7.28026331447e-185
9.07101670631e-72
3.01929181412e-19
5.26306774114e-06
2.00828062086e-05
1.27901386226e-05
9.46586474455e-06
8.30935164022e-06
7.98115631221e-06
7.89295365875e-06
7.86391665846e-06
7.85004667543e-06
7.84153125967e-06
7.8323978483e-06
7.82216789372e-06
7.81073084283e-06
7.79466044057e-06
7.78059913442e-06
7.76513365643e-06
7.74821312113e-06
7.72990392643e-06
7.71011472385e-06
7.68869942282e-06
7.66561106866e-06
7.64084409415e-06
7.61433751924e-06
7.58612741889e-06
7.55648635132e-06
7.52523538375e-06
7.49248046193e-06
7.45836898051e-06
7.42304319269e-06
7.38702086641e-06
7.35035774115e-06
7.31333242041e-06
7.27628126183e-06
7.23956870744e-06
7.20383004454e-06
7.16920834683e-06
7.13625709168e-06
7.10534968833e-06
7.07677474573e-06
7.05091557782e-06
7.02808087522e-06
7.00858614318e-06
6.99273400405e-06
6.98072910422e-06
6.97270473759e-06
6.96707745847e-06
7.21720706242e-185
7.21720706242e-185
7.21720706243e-185
7.21720706244e-185
7.21720706244e-185
7.21720706245e-185
7.21720706246e-185
7.21720706247e-185
7.21720706247e-185
7.21720706248e-185
7.21720706248e-185
7.21720706249e-185
7.2172070625e-185
7.2172070625e-185
7.21720706251e-185
7.21720706253e-185
7.21720706323e-185
7.21720710375e-185
7.21720947867e-185
7.21734349504e-185
7.2250619962e-185
7.37013190228e-185
7.80426009489e-71
6.65640373009e-12
2.6536699436e-05
1.68099152818e-05
1.11923472684e-05
8.88965521198e-06
8.16107340819e-06
7.95371131851e-06
7.89824618551e-06
7.8741927727e-06
7.8633313844e-06
7.85318103225e-06
7.84246509637e-06
7.8308153734e-06
7.81810522286e-06
7.80424362664e-06
7.78576875979e-06
7.76928989531e-06
7.75134956351e-06
7.73192915725e-06
7.71106082491e-06
7.68852378818e-06
7.6642682816e-06
7.63829718863e-06
7.61057560817e-06
7.5811298548e-06
7.55028043526e-06
7.51788831985e-06
7.48406894645e-06
7.44899297084e-06
7.41284334903e-06
7.37613066781e-06
7.33895571126e-06
7.30159209365e-06
7.26437159883e-06
7.22766042819e-06
7.19209980141e-06
7.16110327844e-06
7.12848048775e-06
7.09807607127e-06
7.070053915e-06
7.04478268656e-06
7.02257154704e-06
7.00367933696e-06
6.9883195146e-06
6.97664873604e-06
6.96876521723e-06
6.96343267856e-06
7.21720706023e-185
7.21720706023e-185
7.21720706024e-185
7.21720706024e-185
7.21720706025e-185
7.21720706025e-185
7.21720706026e-185
7.21720706026e-185
7.21720706027e-185
7.21720706027e-185
7.21720706028e-185
7.21720706028e-185
7.21720706029e-185
7.21720706029e-185
7.2172070603e-185
7.21720706035e-185
7.21720706298e-185
7.21720721551e-185
7.21721605757e-185
7.21770674049e-185
7.24529389406e-185
7.61077933126e-185
1.28416111085e-32
3.92199102715e-07
2.36782557249e-05
1.46163703101e-05
1.02624159865e-05
8.64226807227e-06
8.15624929212e-06
8.01665594839e-06
7.97052280579e-06
7.94937302703e-06
7.93463803946e-06
7.92026058899e-06
7.90529191103e-06
7.88952500217e-06
7.87286943982e-06
7.85528738436e-06
7.83656930649e-06
7.81660542236e-06
7.79532228806e-06
7.7692404438e-06
7.74500094677e-06
7.71925807522e-06
7.69204944015e-06
7.66319277994e-06
7.63270718003e-06
7.60063680526e-06
7.5670293618e-06
7.53223539875e-06
7.49620297037e-06
7.46236110977e-06
7.42436545444e-06
7.38575330816e-06
7.34713161915e-06
7.30850073958e-06
7.27031823283e-06
7.23288470233e-06
7.19653386016e-06
7.161673086e-06
7.12863263013e-06
7.09793890589e-06
7.06983528905e-06
7.04454031777e-06
7.02235711927e-06
7.0035374923e-06
6.98825163066e-06
6.97664069145e-06
6.9687905641e-06
6.96348101276e-06
7.21720705869e-185
7.21720705869e-185
7.2172070587e-185
7.2172070587e-185
7.2172070587e-185
7.21720705871e-185
7.21720705871e-185
7.21720705872e-185
7.21720705872e-185
7.21720705872e-185
7.21720705873e-185
7.21720705873e-185
7.21720705874e-185
7.21720705874e-185
7.21720705875e-185
7.21720705887e-185
7.21720706566e-185
7.21720746705e-185
7.21723086599e-185
7.21855908548e-185
7.27668495334e-185
6.00253300003e-72
7.34923801923e-20
4.28105296373e-06
2.05040372603e-05
1.31248245179e-05
9.75558556778e-06
8.58350273169e-06
8.24810440732e-06
8.14567714776e-06
8.10442680333e-06
8.07715703026e-06
8.05569394707e-06
8.03437162389e-06
8.01275139105e-06
7.99063423531e-06
7.9678515889e-06
7.94439519108e-06
7.92014962024e-06
7.89485330702e-06
7.86845941191e-06
7.8408911428e-06
7.81196971916e-06
7.78164315144e-06
7.74986318789e-06
7.71658455436e-06
7.68209658158e-06
7.64622070585e-06
7.60901223667e-06
7.57058194069e-06
7.5310926677e-06
7.4910123238e-06
7.45026430804e-06
7.40916681417e-06
7.36795799759e-06
7.32719832567e-06
7.28708492843e-06
7.24797939399e-06
7.21026674559e-06
7.17419670794e-06
7.14019001427e-06
7.10850453076e-06
7.07955000039e-06
7.05370173385e-06
7.0342318427e-06
7.01500731471e-06
6.99942000962e-06
6.98763087178e-06
6.97964803043e-06
6.9710859017e-06
7.21720705755e-185
7.21720705756e-185
7.21720705756e-185
7.21720705757e-185
7.21720705757e-185
7.21720705757e-185
7.21720705758e-185
7.21720705758e-185
7.21720705758e-185
7.21720705759e-185
7.21720705759e-185
7.21720705759e-185
7.2172070576e-185
7.2172070576e-185
7.21720705761e-185
7.21720705799e-185
7.21720708019e-185
7.2172083719e-185
7.21728104242e-185
7.22141135263e-185
7.31827668189e-185
3.8705512883e-71
4.91834877571e-16
1.60310846689e-05
1.82756253528e-05
1.21118293792e-05
9.49533110444e-06
8.65050085403e-06
8.40238336803e-06
8.32257088512e-06
8.28112206401e-06
8.24596556526e-06
8.2159471418e-06
8.18629010733e-06
8.15664927822e-06
8.12676235735e-06
8.09665029835e-06
8.06613366337e-06
8.03493136842e-06
8.00294854835e-06
7.97002413632e-06
7.93616050354e-06
7.9013466514e-06
7.86531368508e-06
7.82818708332e-06
7.78978863363e-06
7.75014482049e-06
7.70929398521e-06
7.66744927395e-06
7.62479811326e-06
7.58129899974e-06
7.53717237226e-06
7.49271264999e-06
7.44837579326e-06
7.40417026692e-06
7.36390350357e-06
7.32112385749e-06
7.27956951953e-06
7.23953439863e-06
7.20164199764e-06
7.16602214082e-06
7.13295917487e-06
7.1027845989e-06
7.07574887415e-06
7.05210233647e-06
7.03223511871e-06
7.0161141834e-06
7.00386334171e-06
6.99555375515e-06
6.99014121115e-06
7.21720705669e-185
7.2172070567e-185
7.2172070567e-185
7.2172070567e-185
7.21720705671e-185
7.21720705671e-185
7.21720705671e-185
7.21720705671e-185
7.21720705672e-185
7.21720705672e-185
7.21720705672e-185
7.21720705673e-185
7.21720705673e-185
7.21720705673e-185
7.21720705675e-185
7.21720705784e-185
7.21720712129e-185
7.21721081202e-185
7.21741676242e-185
7.22909304408e-185
7.4263896372e-185
6.57365396334e-47
2.95452732639e-09
2.82694515313e-05
1.65480903135e-05
1.14326811019e-05
9.4071705854e-06
8.78756078965e-06
8.60916216611e-06
8.53759010529e-06
8.48985112028e-06
8.44663697102e-06
8.40787233375e-06
8.36939884001e-06
8.33100777005e-06
8.29255413977e-06
8.25410161526e-06
8.21548162714e-06
8.17640848869e-06
8.13677199991e-06
8.09646493395e-06
8.05565275397e-06
8.01391850536e-06
7.97123070041e-06
7.9274990974e-06
7.88305255552e-06
7.83759224729e-06
7.79133249684e-06
7.74752586468e-06
7.69964056582e-06
7.6511483448e-06
7.60264393702e-06
7.55397770538e-06
7.50547119618e-06
7.45743914625e-06
7.41046101042e-06
7.36459226856e-06
7.32030324042e-06
7.27777532885e-06
7.23742224411e-06
7.19954233904e-06
7.16470956776e-06
7.13302250227e-06
7.10465776792e-06
7.08314913151e-06
7.06224088358e-06
7.04528153411e-06
7.03238732481e-06
7.02363296211e-06
7.0180254701e-06
7.21720705602e-185
7.21720705602e-185
7.21720705603e-185
7.21720705603e-185
7.21720705603e-185
7.21720705604e-185
7.21720705604e-185
7.21720705604e-185
7.21720705604e-185
7.21720705605e-185
7.21720705605e-185
7.21720705605e-185
7.21720705605e-185
7.21720705606e-185
7.2172070561e-185
7.2172070588e-185
7.21720721426e-185
7.21721618437e-185
7.21771219059e-185
7.24544066993e-185
7.61386136945e-185
1.16673542669e-32
3.54229806062e-07
2.41547317791e-05
1.52203805372e-05
1.09943548803e-05
9.44808322091e-06
8.99269579613e-06
8.85472795817e-06
8.78114437649e-06
8.72877282064e-06
8.67911968272e-06
8.63062702429e-06
8.57897821794e-06
8.53106419083e-06
8.48358973824e-06
8.43615619932e-06
8.38879681119e-06
8.34463800168e-06
8.29665466503e-06
8.2482143121e-06
8.19953461467e-06
8.15015697109e-06
8.10005437122e-06
8.04931588087e-06
7.99801992806e-06
7.9460709097e-06
7.8934720526e-06
7.84027566169e-06
7.78661367932e-06
7.7330176961e-06
7.67929824088e-06
7.62571854461e-06
7.57279475308e-06
7.52070352538e-06
7.47310027799e-06
7.42358394529e-06
7.37599360386e-06
7.33045017545e-06
7.28735375434e-06
7.24699611338e-06
7.20994269439e-06
7.17630560793e-06
7.14627511813e-06
7.12011238224e-06
7.09797152533e-06
7.08000308411e-06
7.06632079726e-06
7.05699524715e-06
7.05113467119e-06
7.21720705549e-185
7.21720705549e-185
7.21720705549e-185
7.21720705549e-185
7.21720705549e-185
7.2172070555e-185
7.2172070555e-185
7.2172070555e-185
7.2172070555e-185
7.21720705551e-185
7.21720705551e-185
7.21720705551e-185
7.21720705551e-185
7.21720705552e-185
7.21720705562e-185
7.21720706119e-185
7.21720737822e-185
7.21722538658e-185
7.21821351965e-185
7.27122845094e-185
1.34854847696e-72
4.76020772204e-21
2.62403720171e-06
2.16667631748e-05
1.41714885825e-05
1.07586344024e-05
9.59203206931e-06
9.26113984917e-06
9.14030022934e-06
9.06325112663e-06
8.99954549552e-06
8.93795386498e-06
8.87780632039e-06
8.81861295595e-06
8.76004789372e-06
8.70195716756e-06
8.64444414695e-06
8.58722625296e-06
8.53006138774e-06
8.47295153885e-06
8.41586671201e-06
8.35863032958e-06
8.30100544785e-06
8.24291529685e-06
8.18450850755e-06
8.12578035439e-06
8.06657088464e-06
8.00702143899e-06
7.94744759089e-06
7.89117240917e-06
7.83157029001e-06
7.77239019217e-06
7.71363167016e-06
7.65558560501e-06
7.59893365627e-06
7.5436650907e-06
7.49010860287e-06
7.43873095867e-06
7.38992114432e-06
7.34390513365e-06
7.3043191781e-06
7.26469157079e-06
7.22891339928e-06
7.19701150659e-06
7.1692912635e-06
7.14589969208e-06
7.12692252314e-06
7.11245941702e-06
7.10256589108e-06
7.09635901472e-06
7.21720705505e-185
7.21720705505e-185
7.21720705505e-185
7.21720705506e-185
7.21720705506e-185
7.21720705506e-185
7.21720705506e-185
7.21720705506e-185
7.21720705507e-185
7.21720705507e-185
7.21720705507e-185
7.21720705507e-185
7.21720705507e-185
7.21720705508e-185
7.21720705537e-185
7.21720707195e-185
7.21720803223e-185
7.21726206425e-185
7.22030730249e-185
7.30395471141e-185
2.56646824897e-71
3.03491072978e-17
1.03002879553e-05
1.96782562711e-05
1.33832787718e-05
1.06828200843e-05
9.82108968132e-06
9.57607173989e-06
9.46327756227e-06
9.37775595238e-06
9.30035362898e-06
9.22518293271e-06
9.1515620571e-06
9.07955934477e-06
9.00885288955e-06
8.93904025e-06
8.87043699377e-06
8.8025314161e-06
8.73512328715e-06
8.66796336648e-06
8.60120081173e-06
8.53458403344e-06
8.46784279229e-06
8.40492533547e-06
8.338083304e-06
8.2714000599e-06
8.20450441966e-06
8.13762095183e-06
8.07103010897e-06
8.0047597534e-06
7.93879279683e-06
7.87332468072e-06
7.80909756747e-06
7.74955069309e-06
7.68765437299e-06
7.62787405549e-06
7.57016911836e-06
7.51495414112e-06
7.46243331711e-06
7.4129445981e-06
7.36710368818e-06
7.32497993724e-06
7.28679778499e-06
7.25280733374e-06
7.22317995856e-06
7.20206085488e-06
7.18182529237e-06
7.16641225718e-06
7.15585702968e-06
7.14931851541e-06
7.21720705469e-185
7.21720705469e-185
7.21720705469e-185
7.21720705469e-185
7.2172070547e-185
7.2172070547e-185
7.2172070547e-185
7.2172070547e-185
7.2172070547e-185
7.21720705471e-185
7.21720705471e-185
7.21720705471e-185
7.21720705471e-185
7.21720705473e-185
7.21720705548e-185
7.21720709871e-185
7.21720959529e-185
7.21734868526e-185
7.22521841534e-185
7.37327288809e-185
7.57533739207e-71
2.01591177659e-12
2.4918178892e-05
1.80355735102e-05
1.27977368174e-05
1.07226334803e-05
1.01194416437e-05
9.93401506175e-06
9.82001138202e-06
9.72104441062e-06
9.62815777261e-06
9.5377472853e-06
9.44973239135e-06
9.36363001358e-06
9.27965399938e-06
9.19739204236e-06
9.11628174922e-06
9.03650821893e-06
8.96139770546e-06
8.88351335053e-06
8.80611400283e-06
8.72944746408e-06
8.65316863232e-06
8.57709301921e-06
8.50162707737e-06
8.42647050269e-06
8.3514711528e-06
8.28050923811e-06
8.20623549273e-06
8.13282024662e-06
8.06025147158e-06
7.98865277804e-06
7.91815935532e-06
7.84942859049e-06
7.78257273157e-06
7.71785370776e-06
7.65913753386e-06
7.59957064365e-06
7.54333056721e-06
7.49058181999e-06
7.44157265754e-06
7.39657507274e-06
7.35583201348e-06
7.31971358717e-06
7.28841989113e-06
7.26197596448e-06
7.24053574849e-06
7.22424109541e-06
7.21303722556e-06
7.20617040737e-06
7.21720705438e-185
7.21720705439e-185
7.21720705439e-185
7.21720705439e-185
7.21720705439e-185
7.21720705439e-185
7.2172070544e-185
7.2172070544e-185
7.2172070544e-185
7.2172070544e-185
7.2172070544e-185
7.2172070544e-185
7.21720705441e-185
7.21720705445e-185
7.2172070566e-185
7.21720718063e-185
7.21721428909e-185
7.21760524487e-185
7.23933697422e-185
7.54896084237e-185
1.40102015533e-35
1.11500423368e-07
2.62227312985e-05
1.66391118249e-05
1.2416796316e-05
1.08939270865e-05
1.04703032907e-05
1.0317931788e-05
1.02013612556e-05
1.00871438375e-05
9.97841667138e-06
9.87235990798e-06
9.76910369461e-06
9.66856832067e-06
9.57389573692e-06
9.47765836886e-06
9.38352681145e-06
9.29104247537e-06
9.19996099414e-06
9.11043869353e-06
9.02181041568e-06
8.93450726082e-06
8.85165408783e-06
8.76596140454e-06
8.68088160941e-06
8.59639161276e-06
8.51285968276e-06
8.43017828209e-06
8.34817562349e-06
8.26729110426e-06
8.19135387569e-06
8.11285286999e-06
8.03635466051e-06
7.96180578804e-06
7.88934283496e-06
7.81932775694e-06
7.75243140625e-06
7.68874015438e-06
7.63209279693e-06
7.57570736251e-06
7.52335641927e-06
7.47534247555e-06
7.43206740076e-06
7.39377664603e-06
7.36048798435e-06
7.33247282817e-06
7.30974501184e-06
7.29237140987e-06
7.28039628601e-06
7.27310673592e-06
7.21720705413e-185
7.21720705413e-185
7.21720705413e-185
7.21720705413e-185
7.21720705413e-185
7.21720705414e-185
7.21720705414e-185
7.21720705414e-185
7.21720705414e-185
7.21720705414e-185
7.21720705414e-185
7.21720705414e-185
7.21720705415e-185
7.21720705424e-185
7.21720705954e-185
7.21720735897e-185
7.21722423302e-185
7.21813681315e-185
7.26713509731e-185
7.84770723865e-185
1.9118382806e-22
1.60500478922e-06
2.30097384221e-05
1.55566058445e-05
1.22500839761e-05
1.11750442211e-05
1.08888036808e-05
1.07432086478e-05
1.061279909e-05
1.04789296144e-05
1.03520156957e-05
1.02321317646e-05
1.01122956554e-05
9.99544152712e-06
9.88190346782e-06
9.77083740889e-06
9.66271203317e-06
9.55690660773e-06
9.45683703449e-06
9.35455937538e-06
9.25428195352e-06
9.15522465905e-06
9.05786078328e-06
8.96180121904e-06
8.86671993341e-06
8.77677990365e-06
8.68401960992e-06
8.59249026117e-06
8.502481306e-06
8.41386136774e-06
8.32666420806e-06
8.24161861318e-06
8.16236660304e-06
8.08150462104e-06
8.00333068138e-06
7.9282489581e-06
7.85646232859e-06
7.7881018353e-06
7.72364868391e-06
7.66746451132e-06
7.61169173164e-06
7.56059452045e-06
7.51476129472e-06
7.47407945274e-06
7.43883305667e-06
7.40910142857e-06
7.38495889787e-06
7.36648300847e-06
7.35372643005e-06
7.34601146318e-06
7.21720705391e-185
7.21720705391e-185
7.21720705391e-185
7.21720705391e-185
7.21720705391e-185
7.21720705391e-185
7.21720705391e-185
7.21720705392e-185
7.21720705392e-185
7.21720705392e-185
7.21720705392e-185
7.21720705392e-185
7.21720705393e-185
7.21720705423e-185
7.21720707129e-185
7.21720804583e-185
7.2172622318e-185
7.22027048487e-185
7.30494055137e-185
2.39099019706e-71
1.5698729977e-17
8.6009862843e-06
2.07811963969e-05
1.47755269354e-05
1.22845800915e-05
1.15641086585e-05
1.13540620504e-05
1.12055322473e-05
1.10509506973e-05
1.0899304171e-05
1.07513531891e-05
1.06086264971e-05
1.047018546e-05
1.03361695643e-05
1.02058953885e-05
1.00833225327e-05
9.96000437615e-06
9.83960871724e-06
9.72215296595e-06
9.60687326929e-06
9.49404633887e-06
9.38696546821e-06
9.27813442108e-06
9.17076753615e-06
9.06537692937e-06
8.96171281762e-06
8.86336935434e-06
8.76297250249e-06
8.6644528395e-06
8.5676145983e-06
8.47304288867e-06
8.3808530712e-06
8.29101346285e-06
8.20787917556e-06
8.12377467158e-06
8.0432653699e-06
7.96651322401e-06
7.8937337956e-06
7.82513270247e-06
7.76096944295e-06
7.70586844145e-06
7.6518644227e-06
7.60332208558e-06
7.56022281973e-06
7.52282690556e-06
7.49123495526e-06
7.46558096323e-06
7.4460739022e-06
7.43253830689e-06
7.42440684462e-06
7.21720705371e-185
7.21720705371e-185
7.21720705372e-185
7.21720705372e-185
7.21720705372e-185
7.21720705372e-185
7.21720705372e-185
7.21720705372e-185
7.21720705372e-185
7.21720705373e-185
7.21720705373e-185
7.21720705373e-185
7.21720705375e-185
7.21720705469e-185
7.21720710826e-185
7.21721016523e-185
7.21737863866e-185
7.22678767646e-185
7.39615831079e-185
6.72046872486e-48
1.48637444054e-11
2.49839907461e-05
1.89563316217e-05
1.42255792228e-05
1.24739448956e-05
1.20270254592e-05
1.18623913676e-05
1.1688813205e-05
1.15130425535e-05
1.13375224694e-05
1.11672779238e-05
1.10031796366e-05
1.08491650777e-05
1.06961487652e-05
1.05483795349e-05
1.04050271496e-05
1.02656936493e-05
1.01341740217e-05
1.00021030709e-05
9.87299692729e-06
9.74691238352e-06
9.62351697837e-06
9.50681494799e-06
9.38806169727e-06
9.27178740064e-06
9.15778406923e-06
9.04567470455e-06
8.94002775016e-06
8.83268524846e-06
8.72773224988e-06
8.6251462986e-06
8.52562369542e-06
8.42906104291e-06
8.3395502711e-06
8.24976030825e-06
8.16353082311e-06
8.08159037249e-06
8.00414039465e-06
7.93135908112e-06
7.86358170627e-06
7.80487316765e-06
7.74758854799e-06
7.69628835723e-06
7.65080595778e-06
7.6114535471e-06
7.5782083249e-06
7.55121773671e-06
7.53056648918e-06
7.51618756268e-06
7.50757291357e-06
7.21720705354e-185
7.21720705355e-185
7.21720705355e-185
7.21720705355e-185
7.21720705355e-185
7.21720705355e-185
7.21720705355e-185
7.21720705355e-185
7.21720705356e-185
7.21720705356e-185
7.21720705356e-185
7.21720705356e-185
7.21720705362e-185
7.21720705688e-185
7.21720724068e-185
7.2172175707e-185
7.21777512377e-185
7.24792733376e-185
7.64465331579e-185
1.16075527009e-32
2.7870893434e-07
2.59582669106e-05
1.75295619388e-05
1.39654443518e-05
1.28131303089e-05
1.25455757322e-05
1.23846108742e-05
1.21915804401e-05
1.19896693478e-05
1.17904633859e-05
1.15977313315e-05
1.14161951691e-05
1.12375755629e-05
1.10650665956e-05
1.09026291005e-05
1.07412859249e-05
1.05853320588e-05
1.04336778654e-05
1.02866287272e-05
1.01471991108e-05
1.00075406624e-05
9.87097078908e-06
9.73792173743e-06
9.61156019321e-06
9.48405728288e-06
9.35945155633e-06
9.23731274134e-06
9.1182899348e-06
9.00594794952e-06
8.89258358408e-06
8.78212901684e-06
8.67496636406e-06
8.57147136986e-06
8.47580053114e-06
8.37977962722e-06
8.28805798564e-06
8.20106921113e-06
8.11891393031e-06
8.04186244408e-06
7.97002549675e-06
7.90806087465e-06
7.84762391429e-06
7.79352831822e-06
7.74562179707e-06
7.70418733971e-06
7.66919786402e-06
7.64074664115e-06
7.61895234297e-06
7.6037158423e-06
7.59458287992e-06
7.2172070534e-185
7.2172070534e-185
7.2172070534e-185
7.2172070534e-185
7.2172070534e-185
7.2172070534e-185
7.2172070534e-185
7.21720705341e-185
7.21720705341e-185
7.21720705341e-185
7.21720705341e-185
7.21720705341e-185
7.2172070536e-185
7.21720706416e-185
7.21720766605e-185
7.21724135474e-185
7.21908888331e-185
7.28857018819e-185
9.7667438344e-72
2.13503622907e-19
3.86095017691e-06
2.27691513661e-05
1.65188484118e-05
1.39926366914e-05
1.33026661267e-05
1.31250467416e-05
1.29395199553e-05
1.27138882859e-05
1.24826517166e-05
1.22614536262e-05
1.20444307769e-05
1.18363626587e-05
1.16401095204e-05
1.14472496573e-05
1.12613002888e-05
1.1081884204e-05
1.09122056729e-05
1.07443076533e-05
1.05812238697e-05
1.04231053215e-05
1.02733396372e-05
1.01235027711e-05
9.97757578805e-06
9.83510930899e-06
9.70038827045e-06
9.56502010912e-06
9.43292344875e-06
9.30395913745e-06
9.18293468721e-06
9.06077953115e-06
8.942361004e-06
8.82785764646e-06
8.71735997871e-06
8.61483972985e-06
8.51295199257e-06
8.4157976427e-06
8.3236856293e-06
8.23683643299e-06
8.15533678684e-06
8.08397099334e-06
8.01437750849e-06
7.95114297262e-06
7.89418862052e-06
7.84375291039e-06
7.80011991673e-06
7.76340785096e-06
7.73350686106e-06
7.710510531e-06
7.69439676734e-06
7.68472804268e-06
7.21720705326e-185
7.21720705326e-185
7.21720705327e-185
7.21720705327e-185
7.21720705327e-185
7.21720705327e-185
7.21720705327e-185
7.21720705327e-185
7.21720705327e-185
7.21720705327e-185
7.21720705328e-185
7.21720705329e-185
7.21720705408e-185
7.21720709788e-185
7.21720954254e-185
7.21734149247e-185
7.22451490714e-185
7.36476928275e-185
6.16227594905e-71
2.1692266504e-14
1.86567868426e-05
2.05511732326e-05
1.5888018578e-05
1.42622933465e-05
1.39006212435e-05
1.37461097884e-05
1.35180984493e-05
1.32565832836e-05
1.29936191544e-05
1.27403117276e-05
1.2497409485e-05
1.22690098572e-05
1.20462278264e-05
1.18361933798e-05
1.16303319998e-05
1.14316413621e-05
1.12403638638e-05
1.10594257317e-05
1.08801380264e-05
1.07068330973e-05
1.05428842759e-05
1.03790476383e-05
1.0220215656e-05
1.00656476041e-05
9.91948928991e-06
9.77284657536e-06
9.63037549667e-06
9.4920209833e-06
9.36151094134e-06
9.23100979464e-06
9.10468442413e-06
8.98268770844e-06
8.86948774096e-06
8.75652292964e-06
8.64843801603e-06
8.54576735477e-06
8.44855555892e-06
8.35706570283e-06
8.27580946127e-06
8.19611997662e-06
8.12314048746e-06
8.05675356266e-06
7.99716066766e-06
7.944532767e-06
7.89888584797e-06
7.86041240491e-06
7.83331778399e-06
7.80909807617e-06
7.79200588287e-06
7.78174873245e-06
7.21720705314e-185
7.21720705315e-185
7.21720705315e-185
7.21720705315e-185
7.21720705315e-185
7.21720705315e-185
7.21720705315e-185
7.21720705315e-185
7.21720705315e-185
7.21720705316e-185
7.21720705316e-185
7.21720705322e-185
7.21720705661e-185
7.21720724497e-185
7.21721768185e-185
7.21777407562e-185
7.24740246464e-185
7.64107471025e-185
6.83564185423e-33
1.93282993812e-07
2.73113792929e-05
1.88983045155e-05
1.56420913791e-05
1.47202616993e-05
1.45556620013e-05
1.43755936023e-05
1.40991138176e-05
1.38005120706e-05
1.35069574172e-05
1.32294645547e-05
1.29603383474e-05
1.2707104898e-05
1.24605723698e-05
1.22244599372e-05
1.20020092774e-05
1.17839085632e-05
1.15743577371e-05
1.13761946947e-05
1.11807835168e-05
1.0991626505e-05
1.08131284069e-05
1.06358719206e-05
1.04635590131e-05
1.02967422622e-05
1.01387843432e-05
9.98144856409e-06
9.8286628197e-06
9.68484566818e-06
9.54090001589e-06
9.40185471082e-06
9.26761593926e-06
9.13816358781e-06
9.01807698573e-06
8.89887810813e-06
8.78512032835e-06
8.67676838047e-06
8.57908978832e-06
8.48287824105e-06
8.39314662462e-06
8.31002570691e-06
8.23367095879e-06
8.1643186996e-06
8.10212807156e-06
8.05171188135e-06
8.00392103417e-06
7.96350495778e-06
7.93064542847e-06
7.90528528365e-06
7.88730837343e-06
7.87642840122e-06
7.21720705304e-185
7.21720705304e-185
7.21720705304e-185
7.21720705304e-185
7.21720705304e-185
7.21720705304e-185
7.21720705305e-185
7.21720705305e-185
7.21720705305e-185
7.21720705305e-185
7.21720705305e-185
7.21720705332e-185
7.21720706817e-185
7.21720789612e-185
7.21725306956e-185
7.21968409673e-185
7.29905650937e-185
1.48999087486e-71
9.79474519804e-19
4.43582546796e-06
2.3438773758e-05
1.78540764438e-05
1.5802637373e-05
1.53674293502e-05
1.52528773025e-05
1.50104523174e-05
1.46833066539e-05
1.43471615724e-05
1.40262149411e-05
1.37155224506e-05
1.34236020723e-05
1.31411797162e-05
1.28751853674e-05
1.26168978066e-05
1.23689614437e-05
1.21355013354e-05
1.19072520617e-05
1.16915375664e-05
1.14796526165e-05
1.12749699245e-05
1.1081982884e-05
1.08906285321e-05
1.07057261606e-05
1.05307137622e-05
1.03570857006e-05
1.01888194183e-05
1.00255972565e-05
9.87239022651e-06
9.71958006039e-06
9.57192800277e-06
9.42980817237e-06
9.29770428523e-06
9.16648565855e-06
9.04077186046e-06
8.92120219672e-06
8.81268054299e-06
8.70526513449e-06
8.60476226696e-06
8.51106708805e-06
8.42437121058e-06
8.34484962737e-06
8.2772283082e-06
8.21235572119e-06
8.15512591215e-06
8.10545661729e-06
8.06356336529e-06
8.02933432454e-06
8.00276797115e-06
7.98386496785e-06
7.97236136245e-06
7.21720705294e-185
7.21720705294e-185
7.21720705294e-185
7.21720705295e-185
7.21720705295e-185
7.21720705295e-185
7.21720705295e-185
7.21720705295e-185
7.21720705295e-185
7.21720705295e-185
7.21720705298e-185
7.21720705435e-185
7.21720713023e-185
7.21721132774e-185
7.21743579285e-185
7.2294989709e-185
7.43419980413e-185
3.9273500042e-47
9.60155958451e-11
2.37918092093e-05
2.11629814088e-05
1.73616631021e-05
1.62598563592e-05
1.61301181311e-05
1.59709227908e-05
1.56480169e-05
1.5271264965e-05
1.48970166451e-05
1.45433638818e-05
1.42031851498e-05
1.38840219635e-05
1.3575387164e-05
1.32859696498e-05
1.30049704547e-05
1.27361900813e-05
1.24829856952e-05
1.22360391308e-05
1.2003166912e-05
1.17745126687e-05
1.15544831858e-05
1.13466556643e-05
1.11418644548e-05
1.09435647472e-05
1.07568638596e-05
1.05718001361e-05
1.03928253139e-05
1.0224313644e-05
1.00570472623e-05
9.89563342405e-06
9.7400617419e-06
9.59490476975e-06
9.45094857678e-06
9.31299493877e-06
9.18152881021e-06
9.0612615819e-06
8.94274134729e-06
8.83103606759e-06
8.72635383012e-06
8.62879678195e-06
8.54336777371e-06
8.46066364434e-06
8.38563325356e-06
8.31836491205e-06
8.2589221331e-06
8.20745474852e-06
8.16389150804e-06
8.13319457504e-06
8.10548805341e-06
8.08561082744e-06
8.07339580489e-06
7.21720705285e-185
7.21720705286e-185
7.21720705286e-185
7.21720705286e-185
7.21720705286e-185
7.21720705286e-185
7.21720705286e-185
7.21720705286e-185
7.21720705286e-185
7.21720705287e-185
7.217207053e-185
7.21720706012e-185
7.21720744481e-185
7.21722809419e-185
7.21829523425e-185
7.27232969606e-185
7.90304173809e-185
5.89515400131e-24
9.89409436002e-07
2.61641612342e-05
1.96787510354e-05
1.73788715095e-05
1.69600786054e-05
1.69141354579e-05
1.66637337193e-05
1.62664637543e-05
1.58430293387e-05
1.54375347806e-05
1.50474551655e-05
1.46819543783e-05
1.43307425304e-05
1.4001525696e-05
1.36882329571e-05
1.33846664227e-05
1.30952289918e-05
1.28225487735e-05
1.25572585487e-05
1.23071882904e-05
1.20626252505e-05
1.18318754214e-05
1.16052907106e-05
1.13869953876e-05
1.11810356938e-05
1.0977292611e-05
1.07810896379e-05
1.0596689273e-05
1.0413750524e-05
1.02375000447e-05
1.00723508512e-05
9.90886398478e-06
9.75168591305e-06
9.60107037379e-06
9.46198073518e-06
9.32447280306e-06
9.19407212892e-06
9.07077703381e-06
8.95992354993e-06
8.85111158393e-06
8.74988378918e-06
8.65637619478e-06
8.5707110646e-06
8.49305493584e-06
8.42848400773e-06