/*--------------------------------*- C++ -*----------------------------------*\
| =========                 |                                                 |
| \\      /  F ield         | foam-extend: Open Source CFD                    |
|  \\    /   O peration     | Version:     4.1                                |
|   \\  /    A nd           | Web:         http://www.foam-extend.org         |
|    \\/     M anipulation  |                                                 |
\*---------------------------------------------------------------------------*/
FoamFile
{
    version     2.0;
    format      ascii;
    class       volScalarField;
    location    "0.0007";
    object      NO;
}
// * * * * * * * * * * * * * * * * * * * * * * * * * * * * * * * * * * * * * //

dimensions      [0 0 0 0 0 0 0];

internalField   nonuniform List<scalar> 
8400
(
2.19526275738e-21
2.19526275738e-21
2.19526275739e-21
2.19526275739e-21
2.1952627574e-21
2.1952627574e-21
2.19526275741e-21
2.19526275741e-21
2.19526275742e-21
2.19526275742e-21
2.19526275743e-21
2.19526275743e-21
2.19526275743e-21
2.19526275744e-21
2.19526275744e-21
2.19526275745e-21
2.19526275745e-21
2.1952627575e-21
2.19526275994e-21
2.19526290107e-21
2.19527079762e-21
2.19571707605e-21
2.2066843848e-21
8.41213913513e-09
0.0271095896579
0.00106536914977
5.80242019281e-06
1.69633813881e-06
9.01826258668e-07
6.77630154826e-07
6.05674217216e-07
5.80880132843e-07
5.71582067264e-07
5.666894457e-07
5.63054230717e-07
5.59864022758e-07
5.56905714619e-07
5.54106513496e-07
5.51386684103e-07
5.48709540637e-07
5.46038431703e-07
5.43362585447e-07
5.406420151e-07
5.38267751723e-07
5.35385048482e-07
5.3240342706e-07
5.29308166854e-07
5.26069189317e-07
5.22676029692e-07
5.19178223395e-07
5.15526187795e-07
5.11720431875e-07
5.07802893525e-07
5.03753742313e-07
4.99617560595e-07
4.95446778305e-07
4.91235886217e-07
4.8706664119e-07
4.8294028785e-07
4.79278915932e-07
4.75423379616e-07
4.71764527884e-07
4.68381207402e-07
4.65307716361e-07
4.62574942372e-07
4.60228625392e-07
4.58317002769e-07
4.5685256501e-07
4.55857186563e-07
4.54732354996e-07
2.19526275592e-21
2.19526275592e-21
2.19526275592e-21
2.19526275593e-21
2.19526275593e-21
2.19526275593e-21
2.19526275593e-21
2.19526275593e-21
2.19526275594e-21
2.19526275594e-21
2.19526275594e-21
2.19526275594e-21
2.19526275594e-21
2.19526275594e-21
2.19526275595e-21
2.19526275595e-21
2.19526275595e-21
2.19526275617e-21
2.19526276878e-21
2.19526350044e-21
2.19530411369e-21
2.19759802059e-21
2.23118459674e-21
0.000115147942494
0.00364560509299
3.81458572253e-05
3.14182480415e-06
1.20870102723e-06
7.46582926406e-07
6.11390987629e-07
5.68802589257e-07
5.55586345255e-07
5.50898390719e-07
5.48546462153e-07
5.46545230944e-07
5.44550936816e-07
5.42514342959e-07
5.40401060754e-07
5.38193244419e-07
5.35883658665e-07
5.33490269488e-07
5.30588535083e-07
5.27954691826e-07
5.25200030789e-07
5.22329654672e-07
5.19302863809e-07
5.16121398971e-07
5.12797869113e-07
5.09306862731e-07
5.05681375523e-07
5.01932930537e-07
4.980348702e-07
4.94035771793e-07
4.89925031538e-07
4.85765196647e-07
4.81588615405e-07
4.77404019316e-07
4.73271224323e-07
4.69592190364e-07
4.65670963894e-07
4.61924536268e-07
4.58400672848e-07
4.55179581924e-07
4.52251696149e-07
4.49656348007e-07
4.47454001911e-07
4.45655185836e-07
4.44284500117e-07
4.43356376032e-07
4.42400604002e-07
2.19526275524e-21
2.19526275524e-21
2.19526275524e-21
2.19526275524e-21
2.19526275524e-21
2.19526275524e-21
2.19526275525e-21
2.19526275525e-21
2.19526275525e-21
2.19526275525e-21
2.19526275525e-21
2.19526275525e-21
2.19526275525e-21
2.19526275525e-21
2.19526275525e-21
2.19526275526e-21
2.19526275527e-21
2.19526275627e-21
2.19526281496e-21
2.19526620256e-21
2.19545843683e-21
2.20298548723e-21
2.22285582094e-09
0.0208313416028
0.0016264271166
8.07216494664e-06
1.93385225068e-06
9.26458351817e-07
6.57819321773e-07
5.76955976558e-07
5.52411877661e-07
5.44943175934e-07
5.42148164481e-07
5.40690834181e-07
5.39312140496e-07
5.37848153783e-07
5.36266463476e-07
5.34168811909e-07
5.32333552356e-07
5.30345828677e-07
5.28202172379e-07
5.25923799518e-07
5.23496332426e-07
5.20893507866e-07
5.18111342794e-07
5.15171823069e-07
5.12043589961e-07
5.08732683276e-07
5.05298943501e-07
5.01694393806e-07
4.97940709503e-07
4.94062677946e-07
4.90054585966e-07
4.86006780271e-07
4.81901581984e-07
4.77782003131e-07
4.73682332477e-07
4.69626927052e-07
4.65709527198e-07
4.61917883669e-07
4.58334487242e-07
4.54990459801e-07
4.51901416692e-07
4.4911896466e-07
4.46662569171e-07
4.44562643338e-07
4.42857405062e-07
4.41570824308e-07
4.40713063783e-07
4.39886832813e-07
2.19526275483e-21
2.19526275483e-21
2.19526275483e-21
2.19526275484e-21
2.19526275484e-21
2.19526275484e-21
2.19526275484e-21
2.19526275484e-21
2.19526275484e-21
2.19526275484e-21
2.19526275484e-21
2.19526275484e-21
2.19526275484e-21
2.19526275484e-21
2.19526275484e-21
2.19526275485e-21
2.19526275493e-21
2.1952627599e-21
2.19526305076e-21
2.19527946424e-21
2.19622477762e-21
2.21399202555e-21
2.07583888536e-08
0.0131619808258
0.000415278134004
4.15446894385e-06
1.39020396797e-06
7.89481618467e-07
6.19610159941e-07
5.6652918169e-07
5.51013688235e-07
5.45719646981e-07
5.43675757712e-07
5.42099385693e-07
5.40558674496e-07
5.38941180333e-07
5.37219825762e-07
5.35385537193e-07
5.3304574871e-07
5.30958397135e-07
5.28712954584e-07
5.26315641072e-07
5.23781619348e-07
5.21068097622e-07
5.18168885685e-07
5.15107154415e-07
5.11859908082e-07
5.08426488828e-07
5.04872697756e-07
5.01157950186e-07
4.97299827546e-07
4.93330992471e-07
4.89247886726e-07
4.85138347165e-07
4.80992209908e-07
4.76847808462e-07
4.72741872465e-07
4.68697189696e-07
4.64810855006e-07
4.6143217189e-07
4.57888412017e-07
4.54606159733e-07
4.51580788924e-07
4.4885948822e-07
4.46480347901e-07
4.44457535834e-07
4.42813517853e-07
4.41563230958e-07
4.40714920716e-07
4.3994741692e-07
2.19526275456e-21
2.19526275457e-21
2.19526275457e-21
2.19526275457e-21
2.19526275457e-21
2.19526275457e-21
2.19526275457e-21
2.19526275457e-21
2.19526275457e-21
2.19526275457e-21
2.19526275457e-21
2.19526275457e-21
2.19526275457e-21
2.19526275457e-21
2.19526275457e-21
2.19526275458e-21
2.1952627549e-21
2.19526277358e-21
2.1952638565e-21
2.19532395226e-21
2.19870265298e-21
2.24346500619e-21
0.00106588078836
0.00286960799617
2.04944618374e-05
2.73802581995e-06
1.12174655488e-06
7.24902890757e-07
6.07341938931e-07
5.70267846885e-07
5.58765413644e-07
5.5463459029e-07
5.52314852544e-07
5.50293190364e-07
5.48262523255e-07
5.46165006922e-07
5.43988068142e-07
5.4173827849e-07
5.39372204715e-07
5.36875866811e-07
5.3425595618e-07
5.31100440682e-07
5.28177236558e-07
5.25099785765e-07
5.21882686442e-07
5.18487011114e-07
5.14928147725e-07
5.11216329753e-07
5.07339992741e-07
5.03365663407e-07
4.99263483054e-07
4.95430182338e-07
4.91155477258e-07
4.86821826167e-07
4.82529634502e-07
4.7824298869e-07
4.74032109681e-07
4.6991857374e-07
4.6593719982e-07
4.62146818844e-07
4.5855778389e-07
4.55242072681e-07
4.52215189763e-07
4.4949042933e-07
4.47106915127e-07
4.45097909492e-07
4.43466896477e-07
4.422276219e-07
4.4138754824e-07
4.40636514695e-07
2.19526275438e-21
2.19526275438e-21
2.19526275438e-21
2.19526275438e-21
2.19526275438e-21
2.19526275438e-21
2.19526275438e-21
2.19526275438e-21
2.19526275438e-21
2.19526275438e-21
2.19526275438e-21
2.19526275438e-21
2.19526275438e-21
2.19526275438e-21
2.19526275438e-21
2.1952627544e-21
2.19526275523e-21
2.19526280439e-21
2.19526567014e-21
2.1954283421e-21
2.20254723211e-21
1.46549169515e-09
0.0188578665982
0.00173362517516
8.78976963913e-06
2.04698473774e-06
9.80983624876e-07
6.97398205581e-07
6.11362809897e-07
5.83779081838e-07
5.74578415524e-07
5.70141166308e-07
5.67127594358e-07
5.64281890643e-07
5.61463874946e-07
5.58621316623e-07
5.55718904118e-07
5.52767747704e-07
5.49754943001e-07
5.46634027769e-07
5.43410036355e-07
5.40080183134e-07
5.36604929714e-07
5.32993107804e-07
5.29239402925e-07
5.25322601512e-07
5.21305757477e-07
5.17145000298e-07
5.12856346586e-07
5.08458704788e-07
5.03952241571e-07
4.99419242988e-07
4.94818322914e-07
4.90218814728e-07
4.85616203083e-07
4.81094054317e-07
4.76657581818e-07
4.72353730171e-07
4.68226605206e-07
4.64285991257e-07
4.60601526809e-07
4.57169230161e-07
4.54039564599e-07
4.51260177967e-07
4.49171897552e-07
4.47104898435e-07
4.45432243987e-07
4.44176964035e-07
4.43325955288e-07
4.42233464349e-07
2.19526275424e-21
2.19526275424e-21
2.19526275424e-21
2.19526275424e-21
2.19526275424e-21
2.19526275424e-21
2.19526275424e-21
2.19526275424e-21
2.19526275424e-21
2.19526275424e-21
2.19526275424e-21
2.19526275424e-21
2.19526275424e-21
2.19526275424e-21
2.19526275424e-21
2.19526275429e-21
2.19526275701e-21
2.19526291521e-21
2.19527181544e-21
2.1957776698e-21
2.20764112493e-21
9.85486045924e-09
0.0269749859353
0.000957988416122
5.44697622065e-06
1.65824757674e-06
9.02838427185e-07
6.92537540377e-07
6.25716822702e-07
6.04321674083e-07
5.96170930397e-07
5.91006311803e-07
5.86989522994e-07
5.8312778188e-07
5.79336555675e-07
5.75537355169e-07
5.71747399233e-07
5.67941128608e-07
5.64069104618e-07
5.60151687217e-07
5.5613954129e-07
5.52042685277e-07
5.47868364208e-07
5.43562143519e-07
5.39172316817e-07
5.34647110978e-07
5.30010289844e-07
5.25258855175e-07
5.20418863042e-07
5.15518401684e-07
5.10540652809e-07
5.05526287357e-07
5.00491545711e-07
4.95508289812e-07
4.90550952151e-07
4.86074127994e-07
4.81317163075e-07
4.76739224068e-07
4.72333213283e-07
4.68193704995e-07
4.64310960881e-07
4.60716293554e-07
4.57456350151e-07
4.54536180872e-07
4.51982368473e-07
4.49854782383e-07
4.48129202934e-07
4.46818847403e-07
4.4593034758e-07
4.45187503546e-07
2.19526275413e-21
2.19526275413e-21
2.19526275413e-21
2.19526275413e-21
2.19526275413e-21
2.19526275413e-21
2.19526275413e-21
2.19526275413e-21
2.19526275414e-21
2.19526275414e-21
2.19526275414e-21
2.19526275414e-21
2.19526275414e-21
2.19526275414e-21
2.19526275414e-21
2.19526275427e-21
2.19526276204e-21
2.19526321406e-21
2.19528843757e-21
2.19671847497e-21
2.22088211841e-21
6.23087851404e-06
0.00580672544236
0.000151257176685
3.87270735767e-06
1.42160918811e-06
8.6245586613e-07
7.00374717646e-07
6.48591997692e-07
6.30658876464e-07
6.22392406965e-07
6.1633983603e-07
6.11230942142e-07
6.06250164034e-07
6.01340155004e-07
5.96457588177e-07
5.91615688735e-07
5.86790393672e-07
5.81939687781e-07
5.77064178579e-07
5.72127445947e-07
5.67177258278e-07
5.62129217668e-07
5.57021543203e-07
5.51801857231e-07
5.46546644351e-07
5.41185554473e-07
5.35776708628e-07
5.3067373525e-07
5.25139340454e-07
5.1955178967e-07
5.140127914e-07
5.0846542249e-07
5.02982513014e-07
4.97567220688e-07
4.92311989508e-07
4.87194299491e-07
4.82287419642e-07
4.77582498711e-07
4.73152120082e-07
4.68997493301e-07
4.65205850936e-07
4.61764868257e-07
4.58682684853e-07
4.5636880198e-07
4.54113774968e-07
4.52286202922e-07
4.50898633039e-07
4.49959418277e-07
4.49198493613e-07
2.19526275405e-21
2.19526275405e-21
2.19526275405e-21
2.19526275405e-21
2.19526275405e-21
2.19526275405e-21
2.19526275405e-21
2.19526275405e-21
2.19526275405e-21
2.19526275405e-21
2.19526275405e-21
2.19526275405e-21
2.19526275405e-21
2.19526275405e-21
2.19526275406e-21
2.19526275439e-21
2.19526277343e-21
2.19526387203e-21
2.19532461975e-21
2.19872062916e-21
2.24384247481e-21
0.000998023424426
0.00292423546851
2.2841256319e-05
2.98491961289e-06
1.27111099244e-06
8.47388278802e-07
7.19735537507e-07
6.78022212952e-07
6.61643790744e-07
6.5321832517e-07
6.46368675932e-07
6.39971374526e-07
6.3326739015e-07
6.2709140623e-07
6.210304785e-07
6.15002392219e-07
6.0904529306e-07
6.03507592325e-07
5.97555770469e-07
5.91571170046e-07
5.85613178952e-07
5.79595375791e-07
5.73539105995e-07
5.67437161217e-07
5.61306629355e-07
5.55137943563e-07
5.48920763907e-07
5.4268331245e-07
5.36413557949e-07
5.30205408876e-07
5.24007637738e-07
5.17863132257e-07
5.11829240554e-07
5.05911251307e-07
5.0055319422e-07
4.94985261533e-07
4.8968048311e-07
4.84608653882e-07
4.79849087131e-07
4.75396323506e-07
4.71336651962e-07
4.6766229625e-07
4.64384264426e-07
4.6155187238e-07
4.591551668e-07
4.57210305311e-07
4.5573024386e-07
4.54722932191e-07
4.53942330394e-07
2.19526275398e-21
2.19526275398e-21
2.19526275398e-21
2.19526275399e-21
2.19526275399e-21
2.19526275399e-21
2.19526275399e-21
2.19526275399e-21
2.19526275399e-21
2.19526275399e-21
2.19526275399e-21
2.19526275399e-21
2.19526275399e-21
2.19526275399e-21
2.195262754e-21
2.19526275468e-21
2.19526279351e-21
2.19526499906e-21
2.19538601937e-21
2.20187895408e-21
3.27415484739e-10
0.0146292741153
0.00198050365397
1.11070324865e-05
2.41880472157e-06
1.17885859948e-06
8.51245737943e-07
7.49790937382e-07
7.14219358109e-07
6.98739925013e-07
6.89087238946e-07
6.80648752171e-07
6.72642034183e-07
6.6486373694e-07
6.57220648998e-07
6.49704227131e-07
6.42320144868e-07
6.35013479055e-07
6.27784672266e-07
6.20602286511e-07
6.13471204595e-07
6.06378513486e-07
5.9927103449e-07
5.92167578538e-07
5.85065248035e-07
5.7796228936e-07
5.70861525017e-07
5.63751737164e-07
5.5668446598e-07
5.50060938477e-07
5.43066566447e-07
5.36182321506e-07
5.29378868442e-07
5.22691185704e-07
5.16216295939e-07
5.09922337093e-07
5.03866668201e-07
4.98082310653e-07
4.92614715673e-07
4.87482734999e-07
4.83095300273e-07
4.78710184673e-07
4.74778993813e-07
4.71276305946e-07
4.68248943336e-07
4.6570508331e-07
4.63642965544e-07
4.62072569791e-07
4.60999234694e-07
4.60173360366e-07
2.19526275393e-21
2.19526275393e-21
2.19526275393e-21
2.19526275393e-21
2.19526275393e-21
2.19526275393e-21
2.19526275393e-21
2.19526275393e-21
2.19526275393e-21
2.19526275393e-21
2.19526275393e-21
2.19526275393e-21
2.19526275393e-21
2.19526275393e-21
2.19526275397e-21
2.195262756e-21
2.19526287361e-21
2.19526949111e-21
2.1956424527e-21
2.20588706023e-21
6.43976103461e-09
0.0263940830253
0.00126387341482
6.9730051617e-06
2.04496055107e-06
1.12605947662e-06
8.70302387189e-07
7.88280949292e-07
7.57092586895e-07
7.4145104701e-07
7.30062749501e-07
7.19707349726e-07
7.09773958058e-07
7.00155643982e-07
6.90783156207e-07
6.81600677262e-07
6.72658485466e-07
6.63864905532e-07
6.55191016461e-07
6.46626454683e-07
6.38169515039e-07
6.29781451809e-07
6.21441018186e-07
6.13642735203e-07
6.05393886549e-07
5.97229647323e-07
5.89099224172e-07
5.8101490338e-07
5.73015846148e-07
5.65119977995e-07
5.5730254475e-07
5.49585128281e-07
5.42076337673e-07
5.35156815652e-07
5.27990606327e-07
5.21130346432e-07
5.14534403965e-07
5.08260051275e-07
5.0232546907e-07
4.96754110174e-07
4.9163105483e-07
4.86936176109e-07
4.82704101545e-07
4.78949587335e-07
4.75674822673e-07
4.73366351886e-07
4.71151999104e-07
4.69471518919e-07
4.68324984984e-07
4.67468023403e-07
2.19526275389e-21
2.19526275389e-21
2.19526275389e-21
2.19526275389e-21
2.19526275389e-21
2.19526275389e-21
2.19526275389e-21
2.19526275389e-21
2.19526275389e-21
2.19526275389e-21
2.19526275389e-21
2.19526275389e-21
2.19526275389e-21
2.19526275389e-21
2.19526275398e-21
2.19526275928e-21
2.19526306504e-21
2.19528009991e-21
2.19624393486e-21
2.2143767137e-21
2.02114526304e-08
0.014860923703
0.00053685430325
4.92905671285e-06
1.78614392111e-06
1.0994678731e-06
9.02004141482e-07
8.35068699662e-07
8.06514621596e-07
7.89675488459e-07
7.76117250661e-07
7.6348024097e-07
7.51368621724e-07
7.39633504007e-07
7.28283521351e-07
7.17270944198e-07
7.06495242324e-07
6.95974636755e-07
6.86148588642e-07
6.76023535099e-07
6.66055032419e-07
6.56250780005e-07
6.4656245202e-07
6.36964622073e-07
6.27522154579e-07
6.18187297832e-07
6.08928638638e-07
6.0023283924e-07
5.91191352531e-07
5.82325220834e-07
5.73614858436e-07
5.6507211697e-07
5.56723779872e-07
5.48641942776e-07
5.40823948113e-07
5.33296644178e-07
5.26532896152e-07
5.19687010588e-07
5.13264957976e-07
5.07276401077e-07
5.01734358597e-07
4.96680990747e-07
4.92118301023e-07
4.88091063905e-07
4.84618577544e-07
4.81687236761e-07
4.79317240113e-07
4.7753236213e-07
4.7630929807e-07
4.75418050102e-07
2.19526275385e-21
2.19526275385e-21
2.19526275385e-21
2.19526275385e-21
2.19526275385e-21
2.19526275385e-21
2.19526275385e-21
2.19526275385e-21
2.19526275385e-21
2.19526275385e-21
2.19526275385e-21
2.19526275385e-21
2.19526275385e-21
2.19526275386e-21
2.19526275412e-21
2.19526276931e-21
2.19526363991e-21
2.19531152171e-21
2.19797308698e-21
2.23589386723e-21
0.000195876872402
0.00351502362821
4.38720994951e-05
3.71925348716e-06
1.61204885578e-06
1.09953574594e-06
9.44064671145e-07
8.88138309254e-07
8.61572158956e-07
8.42944229381e-07
8.2695902014e-07
8.11831654605e-07
7.97299883246e-07
7.83288771407e-07
7.70224662722e-07
7.57050226322e-07
7.44277335077e-07
7.31830963873e-07
7.19671433863e-07
7.07816043507e-07
6.9617498196e-07
6.84801481811e-07
6.74101199299e-07
6.63106760353e-07
6.52275525764e-07
6.41597884609e-07
6.31117778037e-07
6.20833613558e-07
6.10707334833e-07
6.00786620995e-07
5.91548168234e-07
5.82050464844e-07
5.72872175239e-07
5.63990922568e-07
5.55412015487e-07
5.47172362729e-07
5.39358530069e-07
5.3196374051e-07
5.25424480401e-07
5.18954844495e-07
5.12974720455e-07
5.07520789314e-07
5.02626829423e-07
4.98320630519e-07
4.9458071254e-07
4.91457233132e-07
4.88929698903e-07
4.8700203926e-07
4.85679279877e-07
4.84735308719e-07
2.19526275382e-21
2.19526275382e-21
2.19526275382e-21
2.19526275382e-21
2.19526275382e-21
2.19526275382e-21
2.19526275382e-21
2.19526275382e-21
2.19526275382e-21
2.19526275382e-21
2.19526275382e-21
2.19526275382e-21
2.19526275382e-21
2.19526275383e-21
2.19526275448e-21
2.19526279115e-21
2.19526485778e-21
2.19537662484e-21
2.20137762592e-21
2.27248244327e-21
0.0103320286166
0.00222228622463
1.47380805955e-05
2.97352144123e-06
1.5059943437e-06
1.12131688838e-06
9.99501022173e-07
9.50175883025e-07
9.23421778405e-07
9.01997957914e-07
8.83040627412e-07
8.65530832845e-07
8.48234917701e-07
8.31541140364e-07
8.15481536811e-07
7.99920024205e-07
7.84914160474e-07
7.70358458238e-07
7.56726412643e-07
7.42900778715e-07
7.29466908371e-07
7.16306213326e-07
7.03478444097e-07
6.90927032046e-07
6.78600263871e-07
6.67048102305e-07
6.55212659827e-07
6.4362950634e-07
6.3232822841e-07
6.21287330178e-07
6.10505126038e-07
6.00069285662e-07
5.90436412147e-07
5.80660769468e-07
5.71278299621e-07
5.62326466535e-07
5.53831279164e-07
5.45798929208e-07
5.38260525886e-07
5.31738887742e-07
5.2529755315e-07
5.19417810423e-07
5.14188028199e-07
5.09553396838e-07
5.05563839811e-07
5.02211328331e-07
4.99494018145e-07
4.97421477115e-07
4.96008269793e-07
4.9502343642e-07
2.19526275379e-21
2.19526275379e-21
2.19526275379e-21
2.19526275379e-21
2.19526275379e-21
2.19526275379e-21
2.19526275379e-21
2.19526275379e-21
2.19526275379e-21
2.19526275379e-21
2.19526275379e-21
2.19526275379e-21
2.19526275379e-21
2.19526275383e-21
2.19526275592e-21
2.19526287528e-21
2.19526951163e-21
2.19563794351e-21
2.2060077997e-21
6.00021208031e-09
0.0259314377464
0.00138168806049
8.2917756364e-06
2.49748188374e-06
1.45394234835e-06
1.16461315969e-06
1.06582477519e-06
1.02115446463e-06
9.91985185507e-07
9.67716694702e-07
9.45111929937e-07
9.23705241447e-07
9.03183315921e-07
8.83531057352e-07
8.64633115127e-07
8.47050154787e-07
8.29511674878e-07
8.1255897791e-07
7.96177917219e-07
7.8024864294e-07
7.64798603285e-07
7.50283851797e-07
7.35647247619e-07
7.21338724094e-07
7.07418478398e-07
6.93839354955e-07
6.81077511797e-07
6.68145094328e-07
6.55564207546e-07
6.43300822377e-07
6.31423313825e-07
6.19937172521e-07
6.08826147978e-07
5.98637104486e-07
5.8838992107e-07
5.78655126256e-07
5.69453129353e-07
5.60784185592e-07
5.52658942257e-07
5.45098703122e-07
5.38672509661e-07
5.32381399323e-07
5.26774399819e-07
5.21802850078e-07
5.17523758114e-07
5.13914088554e-07
5.10991481323e-07
5.08794553197e-07
5.0728022756e-07
5.06246001721e-07
2.19526275377e-21
2.19526275377e-21
2.19526275377e-21
2.19526275377e-21
2.19526275377e-21
2.19526275377e-21
2.19526275377e-21
2.19526275377e-21
2.19526275377e-21
2.19526275377e-21
2.19526275377e-21
2.19526275377e-21
2.19526275377e-21
2.19526275389e-21
2.19526276045e-21
2.19526313485e-21
2.19528376841e-21
2.19643612807e-21
2.21717957606e-21
6.43260379902e-07
0.0114196768648
0.000551746291131
5.52402425888e-06
2.1767819215e-06
1.43981048973e-06
1.22420928516e-06
1.14347597883e-06
1.09911280234e-06
1.06734557731e-06
1.0388999558e-06
1.01220313863e-06
9.86862307794e-07
9.63406261313e-07
9.40334808235e-07
9.18320429347e-07
8.97195534874e-07
8.76873066159e-07
8.57892857794e-07
8.39035373784e-07
8.20784193587e-07
8.03133914638e-07
7.86020197633e-07
7.70005064857e-07
7.53842991773e-07
7.38170010749e-07
7.22944652333e-07
7.08108475529e-07
6.94265891179e-07
6.80312125729e-07
6.66791696654e-07
6.53686784885e-07
6.41080849538e-07
6.28944587703e-07
6.17796842747e-07
6.06696731384e-07
5.96125170731e-07
5.86154122454e-07
5.76793149303e-07
5.68049761159e-07
5.59960729229e-07
5.53017725469e-07
5.46257085233e-07
5.40256651979e-07
5.34946254099e-07
5.30387179439e-07
5.26541820665e-07
5.2343549343e-07
5.21082114713e-07
5.19455695272e-07
5.18363603557e-07
2.19526275375e-21
2.19526275375e-21
2.19526275375e-21
2.19526275375e-21
2.19526275375e-21
2.19526275375e-21
2.19526275375e-21
2.19526275375e-21
2.19526275375e-21
2.19526275375e-21
2.19526275375e-21
2.19526275375e-21
2.19526275376e-21
2.19526275415e-21
2.19526277667e-21
2.19526404182e-21
2.19533232741e-21
2.19902518008e-21
2.24761367836e-21
0.00101170199592
0.00306206771187
3.49163532485e-05
4.07578361516e-06
1.98340840775e-06
1.46070473323e-06
1.29828821444e-06
1.22836259824e-06
1.1843364579e-06
1.14847627716e-06
1.11549675071e-06
1.08435002048e-06
1.05549773429e-06
1.02744425599e-06
1.00069666635e-06
9.75817507708e-07
9.51400161402e-07
9.28047275987e-07
9.05602100083e-07
8.84076689457e-07
8.63897459877e-07
8.4386961631e-07
8.24508051014e-07
8.05829987462e-07
7.88280390778e-07
7.70727436192e-07
7.53744842558e-07
7.37268953126e-07
7.21360107357e-07
7.06499808404e-07
6.91626359913e-07
6.77268975054e-07
6.63462675887e-07
6.50240612228e-07
6.38137897605e-07
6.26075459473e-07
6.14651078878e-07
6.03900346137e-07
5.93818080742e-07
5.84429948024e-07
5.75739927135e-07
5.68305238179e-07
5.61078222612e-07
5.54661773852e-07
5.48992467024e-07
5.44128978853e-07
5.40033921257e-07
5.36717350621e-07
5.34205628892e-07
5.32463180829e-07
5.31307975083e-07
2.19526275373e-21
2.19526275373e-21
2.19526275373e-21
2.19526275373e-21
2.19526275373e-21
2.19526275373e-21
2.19526275373e-21
2.19526275373e-21
2.19526275373e-21
2.19526275373e-21
2.19526275373e-21
2.19526275373e-21
2.19526275375e-21
2.19526275505e-21
2.19526282876e-21
2.19526695474e-21
2.1954932284e-21
2.20400286078e-21
2.40921544157e-09
0.0203788493325
0.00181478751856
1.24097029834e-05
3.24835187699e-06
1.88716605454e-06
1.51637441144e-06
1.38936468206e-06
1.32436750509e-06
1.27720437243e-06
1.23601272591e-06
1.19841210754e-06
1.16224829861e-06
1.12808843371e-06
1.09634002828e-06
1.06554239265e-06
1.03622979963e-06
1.00830260045e-06
9.82231518089e-07
9.56729964621e-07
9.32242224763e-07
9.08767014336e-07
8.86818722215e-07
8.65054161954e-07
8.44102949853e-07
8.23866116123e-07
8.04946767012e-07
7.86103309527e-07
7.67918820269e-07
7.503401002e-07
7.34023087508e-07
7.17691679355e-07
7.02013381674e-07
6.86994810066e-07
6.72629957652e-07
6.59441845052e-07
6.46433590905e-07
6.34140091359e-07
6.22580663226e-07
6.11766459407e-07
6.016886663e-07
5.92941099478e-07
5.84442759242e-07
5.76791627029e-07
5.69928344101e-07
5.63884692627e-07
5.5868289546e-07
5.54336129917e-07
5.50808088906e-07
5.48116200826e-07
5.46252992387e-07
5.450320086e-07
2.19526275371e-21
2.19526275371e-21
2.19526275371e-21
2.19526275371e-21
2.19526275371e-21
2.19526275371e-21
2.19526275371e-21
2.19526275371e-21
2.19526275371e-21
2.19526275371e-21
2.19526275371e-21
2.19526275372e-21
2.19526275381e-21
2.19526275918e-21
2.19526305858e-21
2.19527921898e-21
2.1961577736e-21
2.2133352457e-21
1.63246425e-08
0.0228731203658
0.000871811303031
7.1215465121e-06
2.75541391917e-06
1.86228142707e-06
1.60012354557e-06
1.49557520975e-06
1.43065895734e-06
1.3783461404e-06
1.33071984775e-06
1.2863124784e-06
1.24451734672e-06
1.20584553772e-06
1.16864273298e-06
1.13409133773e-06
1.10069450503e-06
1.06888314796e-06
1.03864944887e-06
1.01046055992e-06
9.82820018513e-07
9.56456193091e-07
9.31815207066e-07
9.07473817062e-07
8.84146806064e-07
8.61687751844e-07
8.40722130218e-07
8.19877183005e-07
7.99845151212e-07
7.80608825746e-07
7.62665331971e-07
7.44881497038e-07
7.27839034669e-07
7.11550722548e-07
6.96596349805e-07
6.81794725233e-07
6.67763550266e-07
6.54551791999e-07
6.42146929971e-07
6.30561790985e-07
6.20368608361e-07
6.10434126542e-07
6.01413129815e-07
5.93251828126e-07
5.85962276763e-07
5.79571448083e-07
5.74047485729e-07
5.694264897e-07
5.66213252471e-07
5.63337419628e-07
5.61327861134e-07
5.60030254825e-07
2.1952627537e-21
2.1952627537e-21
2.1952627537e-21
2.1952627537e-21
2.1952627537e-21
2.1952627537e-21
2.1952627537e-21
2.1952627537e-21
2.1952627537e-21
2.1952627537e-21
2.1952627537e-21
2.19526275371e-21
2.19526275412e-21
2.19526277719e-21
2.19526405543e-21
2.19533219904e-21
2.19896089742e-21
2.24717539331e-21
0.00071929168273
0.00325701263122
5.21832377063e-05
4.89534251058e-06
2.4790804918e-06
1.89076836103e-06
1.70409180147e-06
1.61196176132e-06
1.54384785452e-06
1.4848077966e-06
1.43024879298e-06
1.38001231697e-06
1.33214273633e-06
1.28786057548e-06
1.24541624958e-06
1.20536565301e-06
1.1682112535e-06
1.13226732107e-06
1.09822711372e-06
1.06650356396e-06
1.03559029957e-06
1.00607313348e-06
9.785786424e-07
9.51600719151e-07
9.25689723629e-07
9.00911462318e-07
8.77735067477e-07
8.54906205179e-07
8.32970716039e-07
8.12582060957e-07
7.92376959687e-07
7.73062179622e-07
7.54611031821e-07
7.37004647178e-07
7.20856316215e-07
7.04957478235e-07
6.89931256631e-07
6.75742557196e-07
6.63083777726e-07
6.50702190161e-07
6.39253945377e-07
6.28730399701e-07
6.19129381133e-07
6.10473121922e-07
6.02758789253e-07
5.96547103797e-07
5.90691536916e-07
5.85760254655e-07
5.81783110649e-07
5.78742416355e-07
5.76607548974e-07
5.75231471176e-07
2.19526275368e-21
2.19526275368e-21
2.19526275368e-21
2.19526275368e-21
2.19526275369e-21
2.19526275369e-21
2.19526275369e-21
2.19526275369e-21
2.19526275369e-21
2.19526275369e-21
2.19526275369e-21
2.19526275372e-21
2.19526275554e-21
2.19526285694e-21
2.1952683895e-21
2.19556612639e-21
2.20528715932e-21
3.71090833167e-09
0.0225697014117
0.00175884916904
1.33467009912e-05
3.79680387855e-06
2.36457323696e-06
1.97260584203e-06
1.82773120156e-06
1.73849577213e-06
1.66413380337e-06
1.59703362494e-06
1.53558215163e-06
1.47737325501e-06
1.42372200681e-06
1.37267897004e-06
1.32543851986e-06
1.28028845305e-06
1.23762313999e-06
1.19809925133e-06
1.15998165549e-06
1.12449972785e-06
1.09009731265e-06
1.05732319345e-06
1.02686765658e-06
9.97019317428e-07
9.68565957129e-07
9.41986613822e-07
9.15922236173e-07
8.90960222061e-07
8.67042128159e-07
8.44863186068e-07
8.22988588571e-07
8.02077438226e-07
7.82164434321e-07
7.63888958127e-07
7.45890629934e-07
7.28820164124e-07
7.12737827472e-07
6.98304116885e-07
6.84123866238e-07
6.70976874687e-07
6.5882333302e-07
6.47670931208e-07
6.37514042446e-07
6.2895623661e-07
6.20776025947e-07
6.13618112291e-07
6.07427321889e-07
6.02253767763e-07
5.98047951169e-07
5.94804151867e-07
5.92531025195e-07
5.91080799122e-07
2.19526275367e-21
2.19526275367e-21
2.19526275367e-21
2.19526275367e-21
2.19526275367e-21
2.19526275367e-21
2.19526275367e-21
2.19526275367e-21
2.19526275367e-21
2.19526275367e-21
2.19526275368e-21
2.19526275385e-21
2.19526276314e-21
2.19526327722e-21
2.1952907683e-21
2.19676819033e-21
2.22183865844e-21
3.76240921888e-06
0.00925435162191
0.000649530090991
7.31683552127e-06
3.22478875881e-06
2.35359040211e-06
2.09403389647e-06
1.96898574127e-06
1.87490748719e-06
1.79188391201e-06
1.71545826516e-06
1.64542789422e-06
1.57951222504e-06
1.51886742838e-06
1.46126479567e-06
1.40825355423e-06
1.35761549861e-06
1.30998295028e-06
1.2658677226e-06
1.2234700622e-06
1.18412030841e-06
1.14601775816e-06
1.10989245618e-06
1.07629174668e-06
1.04358475087e-06
1.0123293161e-06
9.83336994958e-07
9.54922832574e-07
9.27792042358e-07
9.0259817414e-07
8.77855774241e-07
8.54274093376e-07
8.31801449912e-07
8.11089728939e-07
7.90767396782e-07
7.71497266434e-07
7.53315997221e-07
7.36884078523e-07
7.20829447299e-07
7.05839200138e-07
6.9191280657e-07
6.79036155122e-07
6.67873590066e-07
6.57134902919e-07
6.47472522644e-07
6.38862676321e-07
6.3130164172e-07
6.24801987216e-07
6.1932271906e-07
6.15514829902e-07
6.12093846995e-07
6.09670479713e-07
6.08122856341e-07
2.19526275366e-21
2.19526275366e-21
2.19526275366e-21
2.19526275366e-21
2.19526275366e-21
2.19526275366e-21
2.19526275366e-21
2.19526275366e-21
2.19526275366e-21
2.19526275366e-21
2.19526275368e-21
2.19526275455e-21
2.19526280167e-21
2.19526533067e-21
2.19539602726e-21
2.20201382764e-21
2.27925946407e-21
0.00900291356203
0.0024864456497
2.81555873758e-05
5.05987530013e-06
2.95554326202e-06
2.42543110508e-06
2.23741908998e-06
2.11877536793e-06
2.01644694923e-06
1.92301202038e-06
1.83777369145e-06
1.75786489807e-06
1.68466734276e-06
1.6156438382e-06
1.55227537309e-06
1.49306928312e-06
1.43668630534e-06
1.38386696014e-06
1.33499672447e-06
1.28818200431e-06
1.24479479843e-06
1.20297004833e-06
1.16414373989e-06
1.12655933722e-06
1.09086074858e-06
1.05769184466e-06
1.02527373499e-06
9.94487898444e-07
9.65961899475e-07
9.3798136456e-07
9.11383481353e-07
8.86776010005e-07
8.62698926543e-07
8.39806523348e-07
8.18132667716e-07
7.98362037897e-07
7.78993607536e-07
7.60830081358e-07
7.43828518029e-07
7.28708855606e-07
7.13980890418e-07
7.00402783563e-07
6.87962497679e-07
6.76653227306e-07
6.6647811229e-07
6.58108987363e-07
6.5014318876e-07
6.43309380489e-07
6.37540940017e-07
6.32872397393e-07
6.29250668236e-07
6.26665500376e-07
6.25012467953e-07
2.19526275365e-21
2.19526275365e-21
2.19526275365e-21
2.19526275365e-21
2.19526275365e-21
2.19526275365e-21
2.19526275365e-21
2.19526275365e-21
2.19526275365e-21
2.19526275366e-21
2.19526275376e-21
2.19526275952e-21
2.1952630705e-21
2.19527934905e-21
2.19613211083e-21
2.21326713061e-21
1.42314074901e-08
0.0259876220174
0.00115319422314
1.02673160134e-05