/*--------------------------------*- C++ -*----------------------------------*\
| =========                 |                                                 |
| \\      /  F ield         | foam-extend: Open Source CFD                    |
|  \\    /   O peration     | Version:     4.1                                |
|   \\  /    A nd           | Web:         http://www.foam-extend.org         |
|    \\/     M anipulation  |                                                 |
\*---------------------------------------------------------------------------*/
FoamFile
{
    version     2.0;
    format      ascii;
    class       volScalarField;
    location    "0.0007";
    object      NOPlus;
}
// * * * * * * * * * * * * * * * * * * * * * * * * * * * * * * * * * * * * * //

dimensions      [0 0 0 0 0 0 0];

internalField   nonuniform List<scalar> 
8400
(
1.21417155803e-66
1.21417155804e-66
1.21417155804e-66
1.21417155805e-66
1.21417155805e-66
1.21417155805e-66
1.21417155806e-66
1.21417155806e-66
1.21417155807e-66
1.21417155807e-66
1.21417155808e-66
1.21417155808e-66
1.21417155808e-66
1.21417155809e-66
1.21417155809e-66
1.21417155809e-66
1.2141715581e-66
1.21417155814e-66
1.2141715604e-66
1.21417169108e-66
1.21417900317e-66
1.21459224978e-66
1.22474780062e-66
1.22740965589e-26
7.76480095486e-08
0.000493453536528
2.84123906487e-05
1.25677550573e-05
8.06573400818e-06
6.55591904058e-06
6.03560179106e-06
5.85468670157e-06
5.78854772399e-06
5.75554462544e-06
5.73175996021e-06
5.71109388615e-06
5.69193465173e-06
5.6737275843e-06
5.6560152045e-06
5.63855738181e-06
5.62111537934e-06
5.60354515405e-06
5.5856220435e-06
5.56998527329e-06
5.55093945343e-06
5.53117594692e-06
5.51056409e-06
5.48897413418e-06
5.4663360427e-06
5.44283779097e-06
5.41827742199e-06
5.39266601524e-06
5.36611696989e-06
5.33864832508e-06
5.31050306145e-06
5.28198193016e-06
5.25317105427e-06
5.2244662442e-06
5.19600599497e-06
5.17068910859e-06
5.14386651195e-06
5.11840350937e-06
5.09474942151e-06
5.07319737872e-06
5.05402238964e-06
5.03752333321e-06
5.02399688169e-06
5.01362198687e-06
5.00655366249e-06
4.99789347864e-06
1.21417155668e-66
1.21417155668e-66
1.21417155668e-66
1.21417155669e-66
1.21417155669e-66
1.21417155669e-66
1.21417155669e-66
1.21417155669e-66
1.2141715567e-66
1.2141715567e-66
1.2141715567e-66
1.2141715567e-66
1.2141715567e-66
1.2141715567e-66
1.2141715567e-66
1.21417155671e-66
1.21417155671e-66
1.21417155691e-66
1.21417156859e-66
1.21417224609e-66
1.21420985331e-66
1.21633397406e-66
1.2474346013e-66
8.08597461609e-15
0.000109383430939
9.07306774415e-05
1.90815412458e-05
9.95162099512e-06
7.06283386212e-06
6.10172441794e-06
5.78367193098e-06
5.68399415304e-06
5.64985490197e-06
5.6332614579e-06
5.61954721801e-06
5.60601668643e-06
5.5921710299e-06
5.57781501918e-06
5.56286015227e-06
5.54725709406e-06
5.53102686032e-06
5.51139448687e-06
5.49358199018e-06
5.47492429945e-06
5.45542744261e-06
5.4349013085e-06
5.41331536695e-06
5.39066955788e-06
5.36691055439e-06
5.34218233607e-06
5.31653893158e-06
5.28988795324e-06
5.26237857148e-06
5.2340853555e-06
5.2053607596e-06
5.17642884642e-06
5.14741206525e-06
5.1185878036e-06
5.09292871891e-06
5.06542203012e-06
5.03909137052e-06
5.01429672012e-06
4.99149732121e-06
4.97076549961e-06
4.9523784305e-06
4.93666491018e-06
4.9238198809e-06
4.9140267635e-06
4.90738631078e-06
4.90005686899e-06
1.21417155605e-66
1.21417155605e-66
1.21417155605e-66
1.21417155605e-66
1.21417155605e-66
1.21417155605e-66
1.21417155606e-66
1.21417155606e-66
1.21417155606e-66
1.21417155606e-66
1.21417155606e-66
1.21417155606e-66
1.21417155606e-66
1.21417155606e-66
1.21417155606e-66
1.21417155607e-66
1.21417155608e-66
1.21417155701e-66
1.21417161135e-66
1.21417474822e-66
1.21435275404e-66
1.22132268119e-66
3.27540808047e-27
4.23050010979e-09
0.000414213299476
3.50568674945e-05
1.37776366471e-05
8.2555417823e-06
6.44974728138e-06
5.85465434508e-06
5.66795202826e-06
5.61152013164e-06
5.59110047251e-06
5.58059394927e-06
5.57090160066e-06
5.56073545093e-06
5.54984359177e-06
5.53548655733e-06
5.52287458936e-06
5.50927768839e-06
5.49467584888e-06
5.47913483739e-06
5.46257468642e-06
5.4448680882e-06
5.425975886e-06
5.40591184082e-06
5.38459608953e-06
5.36206035727e-06
5.33855922557e-06
5.31391711945e-06
5.28821061474e-06
5.26153996851e-06
5.23398437116e-06
5.20599358813e-06
5.17759165408e-06
5.14900153886e-06
5.12045307219e-06
5.09218062275e-06
5.06469346868e-06
5.03808484087e-06
5.01282930417e-06
4.98920365734e-06
4.96737583732e-06
4.94760629676e-06
4.93010185581e-06
4.91512865705e-06
4.90297158198e-06
4.89379416488e-06
4.88763695347e-06
4.88127816192e-06
1.21417155567e-66
1.21417155567e-66
1.21417155568e-66
1.21417155568e-66
1.21417155568e-66
1.21417155568e-66
1.21417155568e-66
1.21417155568e-66
1.21417155568e-66
1.21417155568e-66
1.21417155568e-66
1.21417155568e-66
1.21417155568e-66
1.21417155568e-66
1.21417155568e-66
1.21417155569e-66
1.21417155577e-66
1.21417156036e-66
1.2141718297e-66
1.21418702832e-66
1.21506237325e-66
1.23151455796e-66
2.98063579696e-26
3.97235869718e-06
0.000366589491975
2.29280595921e-05
1.09779396228e-05
7.36018617621e-06
6.16905631408e-06
5.7734174634e-06
5.6550675741e-06
5.61592616429e-06
5.60112384979e-06
5.59003225877e-06
5.57929617972e-06
5.56812508088e-06
5.5563149704e-06
5.54379284188e-06
5.52782697672e-06
5.5135898499e-06
5.4983295746e-06
5.48205512401e-06
5.46480187219e-06
5.44637372096e-06
5.42672619869e-06
5.40587972851e-06
5.38377947488e-06
5.36044080244e-06
5.33615343133e-06
5.3107741101e-06
5.28437948255e-06
5.25709324505e-06
5.22902700342e-06
5.20062337001e-06
5.17193847264e-06
5.14318020782e-06
5.11457985173e-06
5.08638440132e-06
5.05910547897e-06
5.0353965374e-06
5.01043992102e-06
4.98723054282e-06
4.96582877617e-06
4.9465224258e-06
4.9295629989e-06
4.91514120973e-06
4.90341842088e-06
4.89449955989e-06
4.88844086328e-06
4.88256061346e-06
1.21417155543e-66
1.21417155543e-66
1.21417155543e-66
1.21417155543e-66
1.21417155543e-66
1.21417155543e-66
1.21417155543e-66
1.21417155543e-66
1.21417155543e-66
1.21417155543e-66
1.21417155543e-66
1.21417155543e-66
1.21417155543e-66
1.21417155543e-66
1.21417155543e-66
1.21417155544e-66
1.21417155574e-66
1.21417157304e-66
1.2141725758e-66
1.2142282235e-66
1.21735684582e-66
1.25880606218e-66
1.0884709676e-14
0.000183493933712
6.2292058528e-05
1.74100559752e-05
9.44153997318e-06
6.90986918698e-06
6.06751944218e-06
5.79075364567e-06
5.70459124625e-06
5.67471749882e-06
5.65855467565e-06
5.64463720257e-06
5.63078862567e-06
5.61656392874e-06
5.60183737491e-06
5.58657401211e-06
5.57058069658e-06
5.55376053252e-06
5.53608677689e-06
5.51479698412e-06
5.49509716003e-06
5.4743344586e-06
5.45256167308e-06
5.42961090437e-06
5.40550729076e-06
5.38029004447e-06
5.35397527712e-06
5.32686074107e-06
5.29884244314e-06
5.27261237106e-06
5.24321070086e-06
5.21341023864e-06
5.183701021e-06
5.15401889686e-06
5.124725668e-06
5.09603532919e-06
5.06820806002e-06
5.0415747128e-06
5.01634978976e-06
4.99293876618e-06
4.97150391868e-06
4.95220056089e-06
4.93527718261e-06
4.92094000917e-06
4.90929887725e-06
4.90045123678e-06
4.89444869055e-06
4.88874834902e-06
1.21417155525e-66
1.21417155525e-66
1.21417155525e-66
1.21417155525e-66
1.21417155525e-66
1.21417155525e-66
1.21417155525e-66
1.21417155525e-66
1.21417155525e-66
1.21417155525e-66
1.21417155526e-66
1.21417155526e-66
1.21417155526e-66
1.21417155526e-66
1.21417155526e-66
1.21417155527e-66
1.21417155604e-66
1.21417160156e-66
1.21417425521e-66
1.21432488681e-66
1.22091686402e-66
2.16201903426e-27
2.15882883492e-09
0.000391766876381
3.69606298987e-05
1.42987989956e-05
8.57204768e-06
6.70030816598e-06
6.07858441789e-06
5.87459581285e-06
5.80737132879e-06
5.77650583742e-06
5.75611469673e-06
5.73711133442e-06
5.71828903022e-06
5.69930694995e-06
5.67998153213e-06
5.66030862733e-06
5.64019057756e-06
5.61939625523e-06
5.59789248516e-06
5.57561694681e-06
5.55240257661e-06
5.52821982231e-06
5.50302494012e-06
5.4767571564e-06
5.44967320092e-06
5.42160726915e-06
5.39260978333e-06
5.36276264839e-06
5.33215712142e-06
5.30118434672e-06
5.26974605676e-06
5.2381204047e-06
5.20644415977e-06
5.17516149181e-06
5.14440013155e-06
5.11445697243e-06
5.08563685445e-06
5.05809946914e-06
5.032173195e-06
5.00800985736e-06
4.98592980263e-06
4.96621204926e-06
4.95140123843e-06
4.93672365286e-06
4.92484881603e-06
4.91588098692e-06
4.90979254215e-06
4.9016394457e-06
1.21417155512e-66
1.21417155512e-66
1.21417155512e-66
1.21417155512e-66
1.21417155512e-66
1.21417155512e-66
1.21417155512e-66
1.21417155513e-66
1.21417155513e-66
1.21417155513e-66
1.21417155513e-66
1.21417155513e-66
1.21417155513e-66
1.21417155513e-66
1.21417155513e-66
1.21417155517e-66
1.21417155769e-66
1.21417170418e-66
1.21417994565e-66
1.21464835862e-66
1.22563372653e-66
1.43443025481e-26
1.26354398388e-07
0.00049331767153
2.72782890797e-05
1.23618163019e-05
8.05867881332e-06
6.64183168176e-06
6.16037926748e-06
6.00449141967e-06
5.94691778111e-06
5.91227982509e-06
5.88574992635e-06
5.86042426912e-06
5.83549031361e-06
5.81056729353e-06
5.78568457594e-06
5.76067719626e-06
5.73527843253e-06
5.70944171131e-06
5.6830002099e-06
5.65595803419e-06
5.62830864139e-06
5.59980720061e-06
5.57057870652e-06
5.54044760952e-06
5.50945758043e-06
5.47762683557e-06
5.44511557006e-06
5.41206769126e-06
5.37842722651e-06
5.3443767138e-06
5.31012202952e-06
5.27603623013e-06
5.24206490818e-06
5.21122311562e-06
5.17840954231e-06
5.14661516395e-06
5.1160038674e-06
5.08708065418e-06
5.05990482785e-06
5.03468719107e-06
5.01169130362e-06
4.99108398403e-06
4.97305521802e-06
4.95793140126e-06
4.94566287394e-06
4.93634605447e-06
4.93002810265e-06
4.92444284092e-06
1.21417155502e-66
1.21417155502e-66
1.21417155503e-66
1.21417155503e-66
1.21417155503e-66
1.21417155503e-66
1.21417155503e-66
1.21417155503e-66
1.21417155503e-66
1.21417155503e-66
1.21417155503e-66
1.21417155503e-66
1.21417155503e-66
1.21417155503e-66
1.21417155503e-66
1.21417155516e-66
1.21417156235e-66
1.21417198091e-66
1.21419533747e-66
1.21551952901e-66
1.23789467271e-66
1.07183592822e-18
3.47831073486e-05
0.00020699312749
2.18483059509e-05
1.10888954719e-05
7.77144652459e-06
6.66830305325e-06
6.29749391441e-06
6.17025541888e-06
6.11428223841e-06
6.07492073598e-06
6.0419876368e-06
6.00996803016e-06
5.9783141378e-06
5.9468121125e-06
5.91549547622e-06
5.88421544115e-06
5.85273962057e-06
5.82099741055e-06
5.78886106596e-06
5.75653026836e-06
5.72357738486e-06
5.69002066179e-06
5.65573523046e-06
5.62101314693e-06
5.58557220299e-06
5.54959202676e-06
5.51562663572e-06
5.47855831499e-06
5.44109616132e-06
5.40370555363e-06
5.3662155662e-06
5.32891828084e-06
5.29202117773e-06
5.25600113647e-06
5.220857668e-06
5.18696700821e-06
5.15442423832e-06
5.123583539e-06
5.09465150694e-06
5.06810213151e-06
5.04396662629e-06
5.02233276484e-06
5.00599675149e-06
4.99003787876e-06
4.9771030406e-06
4.96728344121e-06
4.96064061905e-06
4.95497907264e-06
1.21417155495e-66
1.21417155495e-66
1.21417155495e-66
1.21417155495e-66
1.21417155495e-66
1.21417155495e-66
1.21417155495e-66
1.21417155495e-66
1.21417155495e-66
1.21417155495e-66
1.21417155495e-66
1.21417155495e-66
1.21417155495e-66
1.21417155495e-66
1.21417155496e-66
1.21417155526e-66
1.21417157289e-66
1.21417259018e-66
1.21422884159e-66
1.21737349148e-66
1.25915559202e-66
1.19831857551e-14
0.000177326733853
6.64424897671e-05
1.83690383168e-05
1.02264960122e-05
7.64075595391e-06
6.76971981915e-06
6.47478884065e-06
6.36278279103e-06
6.30786243121e-06
6.26455076329e-06
6.22429243084e-06
6.18207083034e-06
6.14310075492e-06
6.10466858523e-06
6.06642673808e-06
6.02841756733e-06
5.99309481732e-06
5.95488772753e-06
5.91645836797e-06
5.87798273562e-06
5.8390642858e-06
5.79970942924e-06
5.75998687391e-06
5.71996505574e-06
5.67953115622e-06
5.63867212822e-06
5.59744299518e-06
5.55591591758e-06
5.51453796165e-06
5.47310938482e-06
5.43183466852e-06
5.39111514725e-06
5.35105452647e-06
5.31457169499e-06
5.27657678608e-06
5.24013588989e-06
5.20526026409e-06
5.17229848143e-06
5.14143790368e-06
5.11315008123e-06
5.08749414252e-06
5.0645963792e-06
5.04467287989e-06
5.02780688387e-06
5.01411576668e-06
5.003695176e-06
4.99660414089e-06
4.99077814004e-06
1.21417155489e-66
1.21417155489e-66
1.21417155489e-66
1.21417155489e-66
1.21417155489e-66
1.21417155489e-66
1.21417155489e-66
1.21417155489e-66
1.21417155489e-66
1.21417155489e-66
1.21417155489e-66
1.21417155489e-66
1.21417155489e-66
1.21417155489e-66
1.2141715549e-66
1.21417155553e-66
1.21417159149e-66
1.21417363379e-66
1.21428569665e-66
1.22029804935e-66
4.83908151137e-28
4.95693028909e-10
0.000339617863035
4.26626902206e-05
1.59209519721e-05
9.66075690865e-06
7.62657872595e-06
6.9365270211e-06
6.69117940017e-06
6.58945928414e-06
6.5289704553e-06
6.47706668509e-06
6.42786638834e-06
6.37989284774e-06
6.3326432347e-06
6.28596455336e-06
6.23992208374e-06
6.19425879157e-06
6.14880613891e-06
6.10352802426e-06
6.05840247213e-06
6.01329405687e-06
5.96798091235e-06
5.92242940608e-06
5.8767237875e-06
5.83085259114e-06
5.78471602856e-06
5.73838835516e-06
5.69210877824e-06
5.64857869365e-06
5.60247425688e-06
5.55680506971e-06
5.51150266627e-06
5.46678799759e-06
5.4232164131e-06
5.38074343311e-06
5.33963860845e-06
5.300232651e-06
5.26282241532e-06
5.22755354177e-06
5.19730741157e-06
5.16697383263e-06
5.1396461679e-06
5.115287125e-06
5.09414715405e-06
5.0763287293e-06
5.06188180522e-06
5.05087839303e-06
5.04335755435e-06
5.03728087615e-06
1.21417155484e-66
1.21417155484e-66
1.21417155484e-66
1.21417155484e-66
1.21417155484e-66
1.21417155484e-66
1.21417155484e-66
1.21417155484e-66
1.21417155484e-66
1.21417155484e-66
1.21417155484e-66
1.21417155484e-66
1.21417155484e-66
1.21417155484e-66
1.21417155487e-66
1.21417155676e-66
1.21417166566e-66
1.21417779336e-66
1.21452314977e-66
1.22400949094e-66
9.41704587414e-27
3.73797620469e-08
0.000479376079692
3.18291075131e-05
1.41653565462e-05
9.30929187672e-06
7.70400117788e-06
7.15208977382e-06
6.94399488228e-06
6.84527361153e-06
6.77642075682e-06
6.71438967195e-06
6.65475062127e-06
6.59678026631e-06
6.54005922251e-06
6.48422879008e-06
6.42954230182e-06
6.37555280383e-06
6.3220922716e-06
6.26898044728e-06
6.216311953e-06
6.16387083422e-06
6.11142364025e-06
6.06214958591e-06
6.00981337204e-06
5.95773217448e-06
5.90557988738e-06
5.85350417487e-06
5.80172508959e-06
5.75028306709e-06
5.69913581329e-06
5.64842576721e-06
5.59875939246e-06
5.55285562182e-06
5.50513345721e-06
5.45913389476e-06
5.41475760227e-06
5.37233157223e-06
5.33200206605e-06
5.29402412482e-06
5.2589049387e-06
5.22665822786e-06
5.19745508908e-06
5.17146450476e-06
5.14877677333e-06
5.13271850981e-06
5.11726577222e-06
5.10554566675e-06
5.09755495327e-06
5.09131843829e-06
1.2141715548e-66
1.2141715548e-66
1.2141715548e-66
1.2141715548e-66
1.2141715548e-66
1.2141715548e-66
1.2141715548e-66
1.2141715548e-66
1.2141715548e-66
1.2141715548e-66
1.2141715548e-66
1.2141715548e-66
1.2141715548e-66
1.2141715548e-66
1.21417155489e-66
1.21417155979e-66
1.21417184292e-66
1.21418761693e-66
1.21508011253e-66
1.23187077298e-66
2.89937261264e-26
2.75084964565e-06
0.000414795299423
2.5447347981e-05
1.2864296471e-05
9.1027650155e-06
7.85541654551e-06
7.41266086231e-06
7.22993258458e-06
7.12829211938e-06
7.04872211277e-06
6.97483162435e-06
6.90379336262e-06
6.83467611303e-06
6.76750435585e-06
6.70190669419e-06
6.637378084e-06
6.57403621189e-06
6.5145819839e-06
6.45299480661e-06
6.39195198403e-06
6.3316096468e-06
6.27167881471e-06
6.21200594383e-06
6.15292516011e-06
6.09417620768e-06
6.03560207783e-06
5.9803366294e-06
5.92247644899e-06
5.86539360479e-06
5.80902468175e-06
5.75346112442e-06
5.69881404265e-06
5.64560041418e-06
5.59388500978e-06
5.54384173677e-06
5.49862379358e-06
5.45268883732e-06
5.4094093175e-06
5.36885733095e-06
5.33121752263e-06
5.29670466829e-06
5.26547160181e-06
5.23780541661e-06
5.21385894842e-06
5.19363808949e-06
5.17727377557e-06
5.16488433211e-06
5.15640025845e-06
5.14994154782e-06
1.21417155476e-66
1.21417155476e-66
1.21417155476e-66
1.21417155476e-66
1.21417155476e-66
1.21417155476e-66
1.21417155476e-66
1.21417155476e-66
1.21417155476e-66
1.21417155476e-66
1.21417155476e-66
1.21417155476e-66
1.21417155477e-66
1.21417155477e-66
1.21417155501e-66
1.21417156908e-66
1.21417237524e-66
1.21421671302e-66
1.21668127948e-66
1.25179530974e-66
1.45961380077e-14
0.000120070950009
9.83882735045e-05
2.11284263872e-05
1.19298761218e-05
9.04640307047e-06
8.06528838491e-06
7.70410413391e-06
7.54171556056e-06
7.43397428745e-06
7.34305753494e-06
7.25691962883e-06
7.17370599912e-06
7.09295207329e-06
7.01716862147e-06
6.94024643932e-06
6.86523681813e-06
6.79174606573e-06
6.71956654658e-06
6.64878252118e-06
6.57882900589e-06
6.51002256323e-06
6.44491119236e-06
6.37758547558e-06
6.31086316133e-06
6.24468512705e-06
6.17934223476e-06
6.11476157253e-06
6.05078033401e-06
5.98771726179e-06
5.9286666049e-06
5.86757872094e-06
5.80814304992e-06
5.7502781407e-06
5.69407853207e-06
5.63982409512e-06
5.588051714e-06
5.53877855865e-06
5.4950633856e-06
5.45149889427e-06
5.41112177106e-06
5.37415279561e-06
5.3408808002e-06
5.31150093842e-06
5.28597073384e-06
5.26452850825e-06
5.24715772357e-06
5.23391207873e-06
5.22483075795e-06
5.21809523861e-06
1.21417155473e-66
1.21417155473e-66
1.21417155473e-66
1.21417155473e-66
1.21417155473e-66
1.21417155473e-66
1.21417155473e-66
1.21417155473e-66
1.21417155474e-66
1.21417155474e-66
1.21417155474e-66
1.21417155474e-66
1.21417155474e-66
1.21417155475e-66
1.21417155535e-66
1.21417158931e-66
1.21417350297e-66
1.21427699747e-66
1.21983382757e-66
1.28567574041e-66
8.57243958232e-11
0.000291457675535
5.06541343541e-05
1.81520617361e-05
1.13134511611e-05
9.10872178133e-06
8.34554159711e-06
8.03887940741e-06
7.88361838478e-06
7.7645946942e-06
7.65998344306e-06
7.56293950873e-06
7.46640052933e-06
7.37253208821e-06
7.28155729291e-06
7.19275471807e-06
7.10649329556e-06
7.02221179988e-06
6.94274383626e-06
6.86155358595e-06
6.78211293405e-06
6.70381543744e-06
6.62704310299e-06
6.55144138113e-06
6.47668308955e-06
6.40615726266e-06
6.33339076972e-06
6.26169666095e-06
6.19127656266e-06
6.12202436612e-06
6.05394525359e-06
5.98759666887e-06
5.92592100591e-06
5.86293474588e-06
5.80212667369e-06
5.74378069443e-06
5.68805959358e-06
5.63504748029e-06
5.5850611612e-06
5.54162681235e-06
5.49845241696e-06
5.45895209672e-06
5.42358667428e-06
5.39221619598e-06
5.3650832671e-06
5.34222902136e-06
5.32370350244e-06
5.30957501883e-06
5.29990248564e-06
5.29289084394e-06
1.21417155471e-66
1.21417155471e-66
1.21417155471e-66
1.21417155471e-66
1.21417155471e-66
1.21417155471e-66
1.21417155471e-66
1.21417155471e-66
1.21417155471e-66
1.21417155471e-66
1.21417155471e-66
1.21417155471e-66
1.21417155471e-66
1.21417155475e-66
1.21417155668e-66
1.2141716672e-66
1.21417781236e-66
1.21451897433e-66
1.22412129374e-66
8.77392639168e-27
2.81711734217e-08
0.000464883026559
3.5357456259e-05
1.60664840089e-05
1.09606539334e-05
9.28617370171e-06
8.67903394182e-06
8.41435861913e-06
8.25310690264e-06
8.12307436891e-06
8.00201083222e-06
7.88653383556e-06
7.77493436831e-06
7.66718924369e-06
7.56263178222e-06
7.46456911466e-06
7.36595462714e-06
7.26988517681e-06
7.17632441022e-06
7.08463840336e-06
6.99501423383e-06
6.91017898732e-06
6.82396605702e-06
6.73905802151e-06
6.65582413712e-06
6.57404568856e-06
6.49675244213e-06
6.41784160594e-06
6.34052316643e-06
6.26460753398e-06
6.19054889383e-06
6.11841861337e-06
6.0481504883e-06
5.98329449166e-06
5.91762336683e-06
5.85485946076e-06
5.79509466189e-06
5.7384674945e-06
5.68512051717e-06
5.63522571115e-06
5.59256514418e-06
5.55067388623e-06
5.51310995655e-06
5.47976612832e-06
5.45087931597e-06
5.42650417608e-06
5.40676408327e-06
5.39184913194e-06
5.38158458963e-06
5.37431755098e-06
1.21417155469e-66
1.21417155469e-66
1.21417155469e-66
1.21417155469e-66
1.21417155469e-66
1.21417155469e-66
1.21417155469e-66
1.21417155469e-66
1.21417155469e-66
1.21417155469e-66
1.21417155469e-66
1.21417155469e-66
1.21417155469e-66
1.2141715548e-66
1.21417156087e-66
1.21417190756e-66
1.21419101391e-66
1.21525808034e-66
1.23446617827e-66
1.07864807493e-19
5.7155700949e-06
0.000419540264539
2.72271745746e-05
1.45497852995e-05
1.08025958948e-05
9.547516835e-06
9.06420505899e-06
8.8169586923e-06
8.64961905854e-06
8.5020278518e-06
8.3628360123e-06
8.22958533852e-06
8.1051604595e-06
7.98179107659e-06
7.86295402981e-06
7.74786079702e-06
7.63617516593e-06
7.53098694736e-06
7.42549670364e-06
7.32250466454e-06
7.22207636117e-06
7.1238866946e-06
7.03127150987e-06
6.93700263215e-06
6.84484964519e-06
6.75460799155e-06
6.66591832339e-06
6.5825614198e-06
6.49782702592e-06
6.4151127261e-06
6.3344221789e-06
6.2562784376e-06
6.18047901991e-06
6.11038764243e-06
6.04003887686e-06
5.97257831814e-06
5.9085402934e-06
5.8480558624e-06
5.79124677605e-06
5.73836244427e-06
5.69273633514e-06
5.64814665547e-06
5.60832015364e-06
5.57302264917e-06
5.54253258781e-06
5.51680669339e-06
5.4959893666e-06
5.48016030214e-06
5.46924056545e-06
5.46166712966e-06
1.21417155467e-66
1.21417155467e-66
1.21417155467e-66
1.21417155467e-66
1.21417155467e-66
1.21417155467e-66
1.21417155467e-66
1.21417155467e-66
1.21417155467e-66
1.21417155467e-66
1.21417155467e-66
1.21417155467e-66
1.21417155468e-66
1.21417155505e-66
1.21417157589e-66
1.2141727474e-66
1.21423597876e-66
1.21765550071e-66
1.26264766562e-66
1.16419619643e-14
0.000163662996837
8.5447824235e-05
2.2250199742e-05
1.35525310746e-05
1.08198968953e-05
9.87846625308e-06
9.477568001e-06
9.24608203775e-06
9.0652589095e-06
8.89955634655e-06
8.74190103654e-06
8.59423636217e-06
8.44915963599e-06
8.3093681181e-06
8.17812657965e-06
8.04787078497e-06
7.9222750494e-06
7.80049368759e-06
7.68259170599e-06
7.57107140762e-06
7.45935961025e-06
7.35030299795e-06
7.24417776107e-06
7.14362277893e-06
7.04213875301e-06
6.94310169054e-06
6.84612878279e-06
6.75170532256e-06
6.66279256847e-06
6.57303613118e-06
6.48569527178e-06
6.40103190233e-06
6.31930911226e-06
6.24397614951e-06
6.16837803503e-06
6.09631916284e-06
6.02806394833e-06
5.96365007016e-06
5.90327771266e-06
5.84702010803e-06
5.79868063863e-06
5.75145588227e-06
5.70928640956e-06
5.67196028023e-06
5.63974464083e-06
5.61259537387e-06
5.59059708355e-06
5.573860146e-06
5.56227098466e-06
5.55435957501e-06
1.21417155465e-66
1.21417155465e-66
1.21417155465e-66
1.21417155465e-66
1.21417155465e-66
1.21417155465e-66
1.21417155465e-66
1.21417155465e-66
1.21417155465e-66
1.21417155465e-66
1.21417155465e-66
1.21417155465e-66
1.21417155467e-66
1.21417155587e-66
1.21417162413e-66
1.21417544472e-66
1.21438497047e-66
1.22226475266e-66
3.54242158948e-27
3.55744047757e-09
0.000380840580522
4.53333588659e-05
1.90338657759e-05
1.29823262296e-05
1.10094732909e-05
1.02866373135e-05
9.93644574208e-06
9.70131681424e-06
9.50159977531e-06
9.31854578078e-06
9.14058959355e-06
8.97055546504e-06
8.81069049442e-06
8.65377955978e-06
8.50279970824e-06
8.35732759059e-06
8.22016209356e-06
8.08447726631e-06
7.95289720907e-06
7.82548379748e-06
7.70524409316e-06
7.5850004132e-06
7.46813874642e-06
7.35413193304e-06
7.24658113845e-06
7.13847584863e-06
7.03313913052e-06
6.93036569228e-06
6.83416660349e-06
6.73700508438e-06
6.64293949448e-06
6.55206472634e-06
6.46441841141e-06
6.3833099049e-06
6.30265532416e-06
6.22586439249e-06
6.15311973329e-06
6.08461258987e-06
6.02037276389e-06
5.96436073868e-06
5.90969047334e-06
5.86013098374e-06
5.81552387012e-06
5.77607110526e-06
5.74200524769e-06
5.7134367468e-06
5.69025430141e-06
5.67253749027e-06
5.66025583084e-06
5.65199053665e-06
1.21417155464e-66
1.21417155464e-66
1.21417155464e-66
1.21417155464e-66
1.21417155464e-66
1.21417155464e-66
1.21417155464e-66
1.21417155464e-66
1.21417155464e-66
1.21417155464e-66
1.21417155464e-66
1.21417155464e-66
1.21417155473e-66
1.2141715597e-66
1.21417183694e-66
1.21418680121e-66
1.2150003286e-66
1.23090639043e-66
2.34692675513e-26
5.58794461914e-07
0.00048945496402
3.18779078022e-05
1.69142716112e-05
1.27402610818e-05
1.13308184748e-05
1.07583614034e-05
1.04328066394e-05
1.01851608807e-05
9.96163027338e-06
9.75133793279e-06
9.55112696337e-06
9.36378360645e-06
9.1812767956e-06
9.00973917535e-06
8.84179350747e-06
8.67998062664e-06
8.52445358321e-06
8.37770370128e-06
8.23229291226e-06
8.09199989936e-06
7.95958124096e-06
7.82728747078e-06
7.6992357085e-06
7.57471796379e-06
7.45737744867e-06
7.33967935703e-06
7.22550779669e-06
7.11473477335e-06
7.01047939345e-06
6.90618005848e-06
6.80534494819e-06
6.70803718119e-06
6.61797324353e-06
6.52803502085e-06
6.44209550207e-06
6.3605378548e-06
6.2833839595e-06
6.21081362545e-06
6.14658615501e-06
6.08353226971e-06
6.02592651002e-06
5.9735674952e-06
5.92659245683e-06
5.88517625781e-06
5.84931277522e-06
5.81919473392e-06
5.79827044029e-06
5.77951377128e-06
5.76643616542e-06
5.75777467851e-06
1.21417155462e-66
1.21417155462e-66
1.21417155462e-66
1.21417155462e-66
1.21417155462e-66
1.21417155462e-66
1.21417155462e-66
1.21417155462e-66
1.21417155462e-66
1.21417155462e-66
1.21417155462e-66
1.21417155463e-66
1.21417155501e-66
1.21417157638e-66
1.21417276001e-66
1.21423585989e-66
1.217595976e-66
1.26224182074e-66
1.64219252275e-14
0.000144642880188
0.000108561333474
2.49099699801e-05
1.55987718966e-05
1.27459639455e-05
1.17422445196e-05
1.126733824e-05
1.09483859208e-05
1.06810423106e-05
1.04332537876e-05
1.02022988149e-05
9.97906843917e-06
9.76977302871e-06
9.56629166077e-06
9.37181909235e-06
9.18942780823e-06
9.01080348005e-06
8.83948883095e-06
8.67792943805e-06
8.5186373957e-06
8.36467939609e-06
8.21974394779e-06
8.07584737285e-06
7.93614543723e-06
7.80107519721e-06
7.67344271557e-06
7.54630045282e-06
7.42295368635e-06
7.30716197217e-06
7.19131985611e-06
7.07964080631e-06
6.97193862249e-06
6.8681435068e-06
6.77211506707e-06
6.67673359287e-06
6.58583048536e-06
6.49927538786e-06
6.42149739759e-06
6.34479033406e-06
6.27337828464e-06
6.20732181947e-06
6.1467216728e-06
6.09176452422e-06
6.04250390538e-06
6.00277619512e-06
5.96504765761e-06
5.93326381347e-06
5.90756123707e-06
5.88787922114e-06
5.87409432727e-06
5.86503041388e-06
1.21417155461e-66
1.21417155461e-66
1.21417155461e-66
1.21417155461e-66
1.21417155461e-66
1.21417155461e-66
1.21417155461e-66
1.21417155461e-66
1.21417155461e-66
1.21417155461e-66
1.21417155461e-66
1.21417155464e-66
1.21417155633e-66
1.21417165022e-66
1.21417677328e-66
1.21445247283e-66
1.22345399237e-66
5.43953365902e-27
7.49308634404e-09
0.000396190662014
4.72196935512e-05
2.0911952328e-05
1.49379537647e-05
1.29923864816e-05
1.22361592748e-05
1.18102542653e-05
1.1482292585e-05
1.11898453985e-05
1.09192925785e-05
1.06591599674e-05
1.0415741411e-05
1.01806565854e-05
9.95998880803e-06
9.74595582732e-06
9.54092671164e-06
9.34838540277e-06
9.16024271608e-06
8.98306133291e-06
8.80935944405e-06
8.64180492331e-06
8.48421610762e-06
8.32797343597e-06
8.17719236412e-06
8.03484470119e-06
7.89357473665e-06
7.75682048899e-06
7.62432944626e-06
7.50024722617e-06
7.37645080547e-06
7.25698024713e-06
7.14206660984e-06
7.03556910884e-06
6.92979045274e-06
6.82865561935e-06
6.73255485097e-06
6.64559340406e-06
6.55941085766e-06
6.47890233325e-06
6.40392778312e-06
6.33465651613e-06
6.27118278663e-06
6.21746250754e-06
6.16581497288e-06
6.12037476108e-06
6.08100372604e-06
6.04793096339e-06
6.02103510134e-06
6.00031501765e-06
5.9857790023e-06
5.97633115105e-06
1.2141715546e-66
1.2141715546e-66
1.2141715546e-66
1.2141715546e-66
1.2141715546e-66
1.2141715546e-66
1.2141715546e-66
1.2141715546e-66
1.2141715546e-66
1.2141715546e-66
1.2141715546e-66
1.21417155476e-66
1.21417156336e-66
1.2141720394e-66
1.21419749569e-66
1.21556556463e-66
1.23878041333e-66
6.44112574524e-19
1.04937312598e-05
0.000448644579013
3.22042822906e-05
1.8560812248e-05
1.47179393486e-05
1.34097044737e-05
1.27986828037e-05
1.23843593751e-05
1.20345173203e-05
1.17125152247e-05
1.1413366538e-05
1.11267355611e-05
1.08588878771e-05
1.06003059272e-05
1.03586361655e-05
1.01242358101e-05
9.90049594234e-06
9.69034011861e-06
9.48549592659e-06
9.29286033228e-06
9.10376752185e-06
8.92217356107e-06
8.75109805245e-06
8.58274749328e-06
8.42004152879e-06
8.26726305999e-06
8.11576209902e-06
7.96942220269e-06
7.83199514426e-06
7.69551329672e-06
7.56399830133e-06
7.43733817381e-06
7.31943972749e-06
7.20246570061e-06
7.09052274807e-06
6.98394442666e-06
6.88673991875e-06
6.79087305156e-06
6.70069879332e-06
6.61633311314e-06
6.53779397916e-06
6.46927715234e-06
6.40287520029e-06
6.34278329767e-06
6.2889991956e-06
6.24155985168e-06
6.20058539832e-06
6.16596673619e-06
6.14193763657e-06
6.12021996787e-06
6.10488728833e-06
6.09497090485e-06
1.21417155459e-66
1.21417155459e-66
1.21417155459e-66
1.21417155459e-66
1.21417155459e-66
1.21417155459e-66
1.21417155459e-66
1.21417155459e-66
1.21417155459e-66
1.21417155459e-66
1.21417155461e-66
1.21417155541e-66
1.21417159904e-66
1.21417394086e-66
1.21429496379e-66
1.22042294009e-66
1.29195115224e-66
2.35408327315e-11
0.000249356093308
7.44457580041e-05
2.51825452069e-05
1.72896137413e-05
1.48501065578e-05
1.39194517638e-05
1.33887566099e-05
1.29679103665e-05
1.25894347081e-05
1.22403265184e-05
1.19071032232e-05
1.15969538709e-05
1.12997946401e-05
1.10222566164e-05
1.07587607695e-05
1.05037736041e-05
1.02610914298e-05
1.00331686963e-05
9.81159970516e-06
9.60335272479e-06
9.39970920846e-06
9.20821591952e-06
9.02016582101e-06
8.83923870492e-06
8.66905532786e-06
8.50060186152e-06
8.33871215495e-06
8.18715920258e-06
8.03678736043e-06
7.89209076487e-06
7.75687153897e-06
7.62291511869e-06
7.49428099463e-06
7.37113867216e-06
7.25774343394e-06
7.14555317027e-06
7.03933646938e-06
6.9389856604e-06
6.84906901994e-06
6.76069305208e-06
6.67860945783e-06
6.60288354746e-06
6.53361434653e-06
6.47090620137e-06
6.41910792946e-06
6.36959874728e-06
6.32694877403e-06
6.29089582566e-06
6.26160055883e-06
6.23890265534e-06
6.2227492229e-06
6.21232456638e-06
1.21417155458e-66
1.21417155458e-66
1.21417155458e-66
1.21417155458e-66
1.21417155458e-66
1.21417155458e-66
1.21417155458e-66
1.21417155458e-66
1.21417155458e-66
1.21417155458e-66
1.21417155468e-66
1.21417156002e-66
1.21417184798e-66
1.21418692165e-66
1.21497656529e-66
1.23084331695e-66
2.04727103698e-26
2.40507994609e-07
0.000497476742647