/*--------------------------------*- C++ -*----------------------------------*\
| =========                 |                                                 |
| \\      /  F ield         | foam-extend: Open Source CFD                    |
|  \\    /   O peration     | Version:     4.1                                |
|   \\  /    A nd           | Web:         http://www.foam-extend.org         |
|    \\/     M anipulation  |                                                 |
\*---------------------------------------------------------------------------*/
FoamFile
{
    version     2.0;
    format      ascii;
    class       volScalarField;
    location    "0.0007";
    object      NPlus;
}
// * * * * * * * * * * * * * * * * * * * * * * * * * * * * * * * * * * * * * //

dimensions      [0 0 0 0 0 0 0];

internalField   nonuniform List<scalar> 
8400
(
9.99867027635e-266
9.99867027641e-266
9.99867027646e-266
9.99867027652e-266
9.99867027658e-266
9.99867027663e-266
9.99867027668e-266
9.99867027673e-266
9.99867027679e-266
9.99867027684e-266
9.99867027688e-266
9.99867027693e-266
9.99867027698e-266
9.99867027703e-266
9.99867027707e-266
9.99867027712e-266
9.99867027717e-266
9.99867027769e-266
9.99867030545e-266
9.99867190998e-266
9.9987616878e-266
1.00038355335e-265
1.01285254781e-265
2.38462579526e-99
3.41987449905e-19
0.000175692994338
0.180381797397
0.384450672854
0.487835533453
0.531697088848
0.54874527078
0.554726780311
0.556690874395
0.557484571663
0.557970867325
0.558367886191
0.5587312065
0.559077717702
0.559416325603
0.559751883247
0.560089030871
0.560431681568
0.560784122747
0.561089833831
0.561468009897
0.561862159256
0.562275834197
0.562710549535
0.563167651149
0.56364530248
0.564145533464
0.564667998181
0.565213196113
0.565778685312
0.56636044499
0.56695282363
0.567551524339
0.568151067729
0.568747408704
0.569278205265
0.569845168807
0.57038329689
0.570885238477
0.571343993367
0.571752942642
0.572106235326
0.572398204986
0.572623548747
0.572779072602
0.573055420085
9.99867025977e-266
9.99867025979e-266
9.99867025981e-266
9.99867025983e-266
9.99867025986e-266
9.99867025988e-266
9.9986702599e-266
9.99867025992e-266
9.99867025994e-266
9.99867025996e-266
9.99867025998e-266
9.99867026e-266
9.99867026002e-266
9.99867026004e-266
9.99867026006e-266
9.99867026008e-266
9.99867026014e-266
9.99867026262e-266
9.998670406e-266
9.99867872434e-266
9.99914046607e-266
1.00252204398e-265
1.04070742214e-265
4.09860638352e-47
1.06632158434e-07
0.0272819639087
0.276920133662
0.439347506208
0.514242756946
0.54435135504
0.55532847603
0.558807499221
0.559900606283
0.560364638048
0.560706668339
0.561029873321
0.561355853047
0.561689960169
0.562033974792
0.562388975144
0.562755858245
0.563191926701
0.563587145674
0.563999222033
0.56442809969
0.564876267476
0.565344975017
0.565835381844
0.566346813394
0.566877486567
0.567426786945
0.567995513804
0.568583947229
0.56918823454
0.569802011957
0.570420248005
0.571039444836
0.571657146496
0.572206179899
0.57279768518
0.573363583931
0.573896148043
0.574387669359
0.574834989387
0.575232512932
0.575574891799
0.575855327587
0.576069678773
0.576216163899
0.57644200249
9.99867025201e-266
9.99867025203e-266
9.99867025204e-266
9.99867025205e-266
9.99867025207e-266
9.99867025208e-266
9.99867025209e-266
9.99867025211e-266
9.99867025212e-266
9.99867025213e-266
9.99867025214e-266
9.99867025216e-266
9.99867025217e-266
9.99867025218e-266
9.99867025219e-266
9.99867025221e-266
9.99867025241e-266
9.99867026377e-266
9.99867093096e-266
9.99870944548e-266
1.00008950026e-265
1.00864718309e-265
6.61338263209e-100
7.90926982172e-23
3.3470457775e-05
0.135988415568
0.36014778767
0.480623852802
0.532156376147
0.551921241979
0.558579781888
0.560563146156
0.561218252539
0.561530562609
0.561793785001
0.56205716392
0.56233001302
0.562672336093
0.562974899221
0.563295079887
0.563632820272
0.563988067246
0.564362276715
0.564757331311
0.565174332106
0.56561514176
0.566079639716
0.566567274787
0.567075192218
0.567604452198
0.568154877068
0.568725938155
0.569314395405
0.569913435461
0.570519745712
0.571130028905
0.571740165073
0.572344663767
0.57293507691
0.573506222848
0.574049023783
0.574556550871
0.575025155437
0.575452436456
0.57583293366
0.576159202747
0.576423657973
0.576622794095
0.576757804466
0.576950616019
9.9986702474e-266
9.99867024741e-266
9.99867024742e-266
9.99867024743e-266
9.99867024744e-266
9.99867024745e-266
9.99867024746e-266
9.99867024747e-266
9.99867024748e-266
9.99867024749e-266
9.99867024749e-266
9.9986702475e-266
9.99867024751e-266
9.99867024752e-266
9.99867024753e-266
9.99867024755e-266
9.99867024853e-266
9.99867030495e-266
9.99867361186e-266
9.99886022063e-266
1.00096077136e-265
1.02116077858e-265
5.41500775917e-99
5.12056284708e-13
0.00129834620162
0.230454686415
0.415971608734
0.50514722524
0.541500579418
0.5550231213
0.559258595711
0.560561534358
0.561020801281
0.561327055727
0.561607229129
0.561888921672
0.562178970225
0.562479200828
0.562849342475
0.563179195895
0.563527324864
0.563893752761
0.564278910627
0.564685416866
0.565114368945
0.565567481231
0.566044618108
0.56654518705
0.567065696319
0.567606940619
0.568168352448
0.568749426564
0.56934581268
0.569950659743
0.570560465402
0.571172107994
0.571781671934
0.572382683519
0.572967112618
0.573473388697
0.574008020243
0.574506034312
0.574965641004
0.575381639683
0.575748742719
0.576060865075
0.576314536871
0.576507852411
0.576640068304
0.576815702276
9.99867024435e-266
9.99867024436e-266
9.99867024437e-266
9.99867024437e-266
9.99867024438e-266
9.99867024439e-266
9.9986702444e-266
9.9986702444e-266
9.99867024441e-266
9.99867024442e-266
9.99867024442e-266
9.99867024443e-266
9.99867024444e-266
9.99867024445e-266
9.99867024445e-266
9.99867024452e-266
9.99867024819e-266
9.99867046057e-266
9.99868277255e-266
9.99936601546e-266
1.00377792685e-265
1.05466931206e-265
5.6882995107e-41
8.34061809973e-07
0.054262007863
0.300650364804
0.451507096296
0.519051926648
0.545879899052
0.555457247632
0.558418278722
0.559354477507
0.559797597145
0.560149717346
0.560487188113
0.560826151617
0.561171065277
0.561524053933
0.561888091185
0.562265480932
0.562657791816
0.563123473005
0.563552285948
0.564001708628
0.564471118339
0.564962503206
0.565476544832
0.566012854105
0.566569815621
0.567143898609
0.567736458072
0.56829034372
0.568913115921
0.569542498074
0.570172018457
0.570800390322
0.571422478738
0.572032717401
0.572624956709
0.573193247267
0.573731138299
0.574232102001
0.57469207334
0.575106667028
0.575470867299
0.575780643726
0.576032093507
0.576223357405
0.57635366782
0.576520204779
9.99867024221e-266
9.99867024221e-266
9.99867024222e-266
9.99867024222e-266
9.99867024223e-266
9.99867024224e-266
9.99867024224e-266
9.99867024225e-266
9.99867024225e-266
9.99867024226e-266
9.99867024227e-266
9.99867024227e-266
9.99867024228e-266
9.99867024228e-266
9.99867024229e-266
9.99867024245e-266
9.99867025191e-266
9.99867081083e-266
9.99870339228e-266
1.00005528484e-265
1.00814892041e-265
4.38538569515e-100
1.13936143991e-23
2.4356424442e-05
0.126358368549
0.351706565904
0.474090407054
0.526785209675
0.547162864491
0.554194129314
0.556384529836
0.55723683461
0.557738252277
0.558180232417
0.558610271836
0.55903899217
0.55947025826
0.559905788063
0.560347984533
0.560800444015
0.561264892099
0.561743380815
0.562238318741
0.562752079938
0.563285865878
0.563839603901
0.564410847888
0.5650008034
0.565609286068
0.566235579627
0.566876812094
0.567527466753
0.568186750346
0.56885241499
0.569518958409
0.570179489771
0.570829866124
0.571464171274
0.572075815311
0.572659953254
0.573212283275
0.573727342424
0.574198957764
0.57462266815
0.574939907532
0.575255729791
0.575510612146
0.575704063157
0.575835936052
0.576055286971
9.99867024063e-266
9.99867024063e-266
9.99867024064e-266
9.99867024064e-266
9.99867024065e-266
9.99867024065e-266
9.99867024066e-266
9.99867024066e-266
9.99867024067e-266
9.99867024067e-266
9.99867024068e-266
9.99867024068e-266
9.99867024069e-266
9.99867024069e-266
9.99867024071e-266
9.99867024124e-266
9.99867027215e-266
9.99867207077e-266
9.99877325957e-266
1.00045244383e-265
1.01394028844e-265
2.75965275265e-99
1.52435919531e-18
0.000240020986294
0.189774931788
0.389073166339
0.488951910727
0.530582630682
0.546533988339
0.551821202705
0.553561916814
0.554420878549
0.555023958703
0.555581073838
0.556124657327
0.556663049945
0.557197981153
0.557732954498
0.558272291666
0.558819750729
0.559376583779
0.559944049504
0.56052341541
0.561117855998
0.561727645762
0.562354228665
0.56299879623
0.563660333461
0.564335787903
0.565023061759
0.565722710005
0.566432754144
0.567147081776
0.567859437088
0.568570371184
0.569217355746
0.569907265632
0.570578326616
0.571224074873
0.57183683544
0.572413258543
0.5729489576
0.573439244687
0.573878803762
0.574263567883
0.574588216743
0.574851531359
0.575051352907
0.575186830426
0.575345213304
9.99867023943e-266
9.99867023944e-266
9.99867023944e-266
9.99867023944e-266
9.99867023945e-266
9.99867023945e-266
9.99867023946e-266
9.99867023946e-266
9.99867023946e-266
9.99867023947e-266
9.99867023947e-266
9.99867023948e-266
9.99867023948e-266
9.99867023949e-266
9.99867023951e-266
9.99867024103e-266
9.99867032938e-266
9.99867546848e-266
9.99896224053e-266
1.00152206762e-265
1.02899428922e-265
2.44847135966e-63
1.29871396848e-09
0.00525401685105
0.243940289546
0.416775133317
0.498634180273
0.532077219899
0.544499135557
0.548638078999
0.550168412335
0.551069861013
0.551779346174
0.552455842366
0.553120716702
0.553779124252
0.554432026227
0.555082521723
0.555734586091
0.556390890544
0.55705282179
0.557718962379
0.558395373992
0.559085300184
0.559788144866
0.560501907598
0.56122929653
0.561970131351
0.562667530715
0.563431975353
0.564203557816
0.564976820948
0.565752377326
0.566527850712
0.567295193339
0.568046739669
0.568780814359
0.569491968604
0.570175651773
0.570826676797
0.571437118123
0.571999395045
0.572511060204
0.572970561156
0.573317600214
0.573659057815
0.573935611132
0.574145207863
0.574286384497
0.574443660575
9.9986702385e-266
9.9986702385e-266
9.9986702385e-266
9.99867023851e-266
9.99867023851e-266
9.99867023851e-266
9.99867023852e-266
9.99867023852e-266
9.99867023852e-266
9.99867023853e-266
9.99867023853e-266
9.99867023854e-266
9.99867023854e-266
9.99867023854e-266
9.99867023861e-266
9.99867024236e-266
9.99867045883e-266
9.99868294911e-266
9.99937360436e-266
1.0037983644e-265
1.05509846512e-265
5.15832557437e-41
7.25947528667e-07
0.0487222687543
0.28926961508
0.437625885593
0.50465089118
0.531676398692
0.541497438574
0.544891639447
0.546266793538
0.547202610995
0.548034090581
0.548894812823
0.549686927812
0.550468192618
0.55124295462
0.552014780584
0.552729637504
0.553503441309
0.554279316469
0.555058105345
0.555844682812
0.556640887273
0.557444426536
0.558254913647
0.559075191269
0.559904808332
0.560744935461
0.561591378913
0.562437799565
0.563286497963
0.564134743718
0.564974204345
0.565802064162
0.566557747897
0.567347074392
0.56810737553
0.568835624648
0.569527680317
0.570175796938
0.570772062781
0.571313418099
0.571796554441
0.572219242291
0.572577255252
0.572868003337
0.573089196692
0.573239426496
0.573400022794
9.99867023775e-266
9.99867023775e-266
9.99867023776e-266
9.99867023776e-266
9.99867023776e-266
9.99867023776e-266
9.99867023777e-266
9.99867023777e-266
9.99867023777e-266
9.99867023778e-266
9.99867023778e-266
9.99867023778e-266
9.99867023779e-266
9.99867023779e-266
9.99867023793e-266
9.99867024569e-266
9.99867068713e-266
9.99869576257e-266
1.00000716713e-265
1.0073891392e-265
9.88307098648e-101
3.37497934672e-25
1.17534882125e-05
0.102814041412
0.327624092231
0.453031907546
0.50793160146
0.529718435845
0.537638622594
0.540481157359
0.541858372748
0.542920229053
0.543900027575
0.544850498566
0.545784649203
0.546707890999
0.547619190803
0.54852236626
0.549423266612
0.550320364915
0.551215134934
0.552111356096
0.553011645686
0.553919543291
0.554831690216
0.555748292341
0.556673431386
0.557603756012
0.558536694028
0.559415165896
0.56034867238
0.561277005061
0.562200244328
0.563114069043
0.564008549603
0.564882017301
0.565730707059
0.566546720926
0.567324310422
0.568060418397
0.568691387937
0.569327083161
0.569901066268
0.570412670607
0.570858030398
0.571234161746
0.571538945513
0.571770930309
0.57192934927
0.572093388718
9.99867023714e-266
9.99867023714e-266
9.99867023715e-266
9.99867023715e-266
9.99867023715e-266
9.99867023716e-266
9.99867023716e-266
9.99867023716e-266
9.99867023716e-266
9.99867023717e-266
9.99867023717e-266
9.99867023717e-266
9.99867023718e-266
9.99867023719e-266
9.99867023759e-266
9.99867026068e-266
9.99867159779e-266
9.99874683375e-266
1.00029871229e-265
1.01194605053e-265
1.84579551459e-99
3.72109296701e-20
0.000100625358362
0.157566156248
0.359458098779
0.464253186225
0.509077980012
0.526633673942
0.53304013372
0.535543967824
0.536990740918
0.53820468041
0.539354897687
0.540470236736
0.541562007956
0.54263865766
0.543695933725
0.544740895667
0.545776780185
0.546809002874
0.547834654208
0.54885756336
0.54988418091
0.550850047414
0.551879581238
0.552906176505
0.55393867153
0.554972357271
0.556003322135
0.557032289234
0.558058480996
0.559079144399
0.560084036374
0.561013436459
0.561984664909
0.562924475163
0.563833647705
0.564706816111
0.565539868785
0.566325919356
0.567055677149
0.567726386366
0.568335771379
0.568879490299
0.569355104192
0.569690651576
0.570015939612
0.570261377612
0.570427799524
0.570591752557
9.99867023664e-266
9.99867023664e-266
9.99867023664e-266
9.99867023665e-266
9.99867023665e-266
9.99867023665e-266
9.99867023665e-266
9.99867023666e-266
9.99867023666e-266
9.99867023666e-266
9.99867023666e-266
9.99867023667e-266
9.99867023667e-266
9.99867023669e-266
9.99867023773e-266
9.99867029793e-266
9.99867377426e-266
9.99886744767e-266
1.00098255167e-265
1.0215981397e-265
5.24574636654e-99
9.6939154179e-14
0.000863330503663
0.209118383276
0.386030346126
0.47246537324
0.508525353091
0.522566447939
0.527814577185
0.53014224456
0.531710119935
0.533103292144
0.53443270076
0.535727108035
0.536987769294
0.53822327379
0.539441790547
0.54064177009
0.541770048503
0.542944016343
0.544111517572
0.545268784334
0.546421703096
0.547573550479
0.548718718144
0.549861800411
0.551006510227
0.552088453284
0.553228262638
0.554357031944
0.555476110612
0.556583386676
0.557677864245
0.558748853237
0.559793248021
0.560807686064
0.561726775873
0.562665219849
0.563552352202
0.564386801413
0.565162715184
0.565876799319
0.566523931584
0.567098696149
0.567597562731
0.568018561924
0.568358904445
0.568616957267
0.568792784542
0.568960103402
9.99867023622e-266
9.99867023622e-266
9.99867023622e-266
9.99867023622e-266
9.99867023623e-266
9.99867023623e-266
9.99867023623e-266
9.99867023623e-266
9.99867023624e-266
9.99867023624e-266
9.99867023624e-266
9.99867023624e-266
9.99867023625e-266
9.9986702363e-266
9.99867023931e-266
9.998670412e-266
9.99868031006e-266
9.99922468965e-266
1.00294846589e-265
1.04606150389e-265
7.09146548835e-47
1.53885072737e-07
0.0237846800349
0.256780655
0.407504325305
0.477589276367
0.506627349504
0.517830591405
0.522129342459
0.52437868838
0.526079168726
0.527650871783
0.529166398074
0.530642034288
0.532030427977
0.533446320104
0.534831840619
0.536194675262
0.537538520758
0.538861141907
0.540174409769
0.541472436641
0.542704253511
0.543984912883
0.545258848911
0.546527916718
0.547787013468
0.549037922657
0.550283338148
0.551517145665
0.55267506582
0.553880782465
0.555059806243
0.556212951656
0.557337834775
0.558428218772
0.559473697321
0.560473747686
0.561361268925
0.562252516945
0.563079925327
0.563839787057
0.564524745638
0.565130978295
0.565657714467
0.566101663285
0.56646114323
0.566734454186
0.566920598751
0.567090454522
9.99867023586e-266
9.99867023586e-266
9.99867023586e-266
9.99867023586e-266
9.99867023587e-266
9.99867023587e-266
9.99867023587e-266
9.99867023587e-266
9.99867023588e-266
9.99867023588e-266
9.99867023588e-266
9.99867023588e-266
9.99867023589e-266
9.99867023602e-266
9.99867024339e-266
9.99867066033e-266
9.9986941563e-266
9.99996486267e-266
1.00681916728e-265
1.08765992721e-265
4.82951743245e-27
5.79300030738e-06
0.0790504312928
0.298270909287
0.423969643592
0.480231268117
0.503244504388
0.512259221197
0.515951223646
0.518240274865
0.520114774124
0.521830299949
0.523541843221
0.525212509175
0.526840096159
0.528437286014
0.529996092973
0.531527916258
0.532976988121
0.534467824282
0.535932749783
0.537384451664
0.538814543197
0.540230060419
0.541637474695
0.542969912049
0.544354874662
0.545725710499
0.547078933736
0.54841698447
0.549739774075
0.551036758644
0.552246071639
0.553489711347
0.554695724222
0.555858033586
0.556973232217
0.558039977647
0.559050265814
0.559928341553
0.56080788041
0.561613128531
0.562337248966
0.562979721011
0.563536950389
0.564006565675
0.564386496795
0.564675169921
0.564872179761
0.565045662225
9.99867023555e-266
9.99867023555e-266
9.99867023555e-266
9.99867023555e-266
9.99867023556e-266
9.99867023556e-266
9.99867023556e-266
9.99867023556e-266
9.99867023557e-266
9.99867023557e-266
9.99867023557e-266
9.99867023557e-266
9.99867023558e-266
9.998670236e-266
9.99867025976e-266
9.99867161674e-266
9.99874706706e-266
1.00029358568e-265
1.0120833221e-265
1.71946460019e-99
1.49006136769e-20
7.30875826215e-05
0.138484688981
0.333182429435
0.435871824796
0.480499014147
0.498740365141
0.505954169679
0.509358849347
0.511698461645
0.513785879098
0.515770533776
0.517696695474
0.519567146122
0.521394365174
0.523116106541
0.524860356698
0.526569731584
0.528244110615
0.529895048742
0.531519037562
0.533062551946
0.534643075265
0.536208756538
0.537752624091
0.53927906774
0.540727912501
0.542218214813
0.543686078066
0.545135885301
0.546558679634
0.547952291737
0.549318869188
0.550584341871
0.551875087742
0.553113539383
0.554300088409
0.555429480248
0.55649807859
0.557502560069
0.55836185404
0.559209362814
0.55997223742
0.560649782854
0.561239690047
0.561736982229
0.562138652802
0.562441663336
0.562648013053
0.562823031085
9.99867023528e-266
9.99867023528e-266
9.99867023528e-266
9.99867023529e-266
9.99867023529e-266
9.99867023529e-266
9.99867023529e-266
9.99867023529e-266
9.9986702353e-266
9.9986702353e-266
9.9986702353e-266
9.9986702353e-266
9.99867023533e-266
9.99867023664e-266
9.99867031124e-266
9.99867456786e-266
9.99890915576e-266
1.00120106071e-265
1.02478478065e-265
2.54019806082e-64
1.26684747941e-12
0.000839739658655
0.196594221949
0.362562282409
0.444168935498
0.478979259182
0.493193637938
0.499197079135
0.502383237735
0.504896907165
0.507218063167
0.50944596869
0.511537210655
0.513626107948
0.51565332353
0.517630848042
0.519564078636
0.521394566228
0.523245704512
0.525065702723
0.526852339033
0.52861136708
0.530278723246
0.531989927853
0.533673399255
0.535332615836
0.536976300283
0.538527756075
0.540118519553
0.541680068153
0.543212876251
0.544706531052
0.54616509502
0.547518526357
0.548887549894
0.550207429751
0.551467203521
0.552662701909
0.55379057611
0.55484715852
0.555758922077
0.556654056679
0.557456575313
0.55816835364
0.558785577361
0.559305791915
0.559726000054
0.560044581936
0.560261761195
0.560439398225
9.99867023505e-266
9.99867023505e-266
9.99867023505e-266
9.99867023505e-266
9.99867023505e-266
9.99867023506e-266
9.99867023506e-266
9.99867023506e-266
9.99867023506e-266
9.99867023506e-266
9.99867023507e-266
9.99867023507e-266
9.99867023515e-266
9.99867023969e-266
9.99867049562e-266
9.99868487947e-266
9.99946123457e-266
1.00414461559e-265
1.05938603623e-265
5.04051396066e-41
5.22429549715e-07
0.0315423120049
0.248892387457
0.385333424821
0.449084159155
0.475935387971
0.487034945795
0.492024680705
0.495174873526
0.497875333247
0.500425266077
0.502824856675
0.505202963283
0.507515036772
0.509699491321
0.511890139856
0.514016918115
0.516096243588
0.51812586343
0.520057357398
0.522008818036
0.523929034661
0.525812033231
0.527606290157
0.529433367579
0.53122831681
0.533000200815
0.534738085267
0.536383196611
0.538058463598
0.539699311418
0.541300213851
0.542856784947
0.544297786547
0.545755645728
0.547151859167
0.548481201301
0.549742660632
0.550931067467
0.55204575958
0.553002923048
0.553943791988
0.554786586487
0.555533426405
0.556180695789
0.556725358224
0.557165150825
0.557498885747
0.557727127648
0.557908218821
9.99867023484e-266
9.99867023484e-266
9.99867023484e-266
9.99867023484e-266
9.99867023485e-266
9.99867023485e-266
9.99867023485e-266
9.99867023485e-266
9.99867023485e-266
9.99867023486e-266
9.99867023486e-266
9.99867023486e-266
9.99867023512e-266
9.99867024982e-266
9.99867108792e-266
9.99871799715e-266
1.00012905562e-265
1.0098038593e-265
7.09392064427e-100
5.11144348703e-23
2.05731445955e-05
0.0965879488563
0.293288152702
0.4017990583
0.4506971081
0.471297912676
0.480044272358
0.484491352532
0.487732550365
0.490601915881
0.49339602475
0.496088273314
0.498642010492
0.501174008058
0.503632261453
0.506024559241
0.508296792753
0.510567806847
0.512788520268
0.514958337945
0.517020300632
0.519101409969
0.521140418308
0.523147333259
0.525051919372
0.5269843758
0.528882821973
0.530750120636
0.532507385508
0.534298538802
0.53604482959
0.537744585314
0.539396061832
0.54093122427
0.542471076913
0.543945812515
0.545350920468
0.546682425473
0.547937699133
0.549032676496
0.550108546858
0.551088362727
0.551972373222
0.552756524222
0.553434196807
0.55400244024
0.554461541913
0.554810654479
0.555050304554
0.555235096051
9.99867023465e-266
9.99867023466e-266
9.99867023466e-266
9.99867023466e-266
9.99867023466e-266
9.99867023466e-266
9.99867023467e-266
9.99867023467e-266
9.99867023467e-266
9.99867023467e-266
9.99867023467e-266
9.99867023469e-266
9.99867023579e-266
9.99867029678e-266
9.9986737008e-266
9.99885743219e-266
1.00088459289e-265
1.02041406994e-265
4.28685779614e-99
2.36346072297e-16
0.000328144895705
0.163675871488
0.329396949378
0.412855999933
0.449662136469
0.465340649582
0.472413903658
0.47659161359
0.480022612953
0.483210156257
0.486267257876
0.489153519054
0.491999277074
0.494698684332
0.497372644566
0.499974310594
0.502500365236
0.504904518653
0.50731150193
0.509657391056
0.511887388387
0.514140146208
0.516338920363
0.518496568747
0.520545038604
0.522619811982
0.524649062894
0.526635552155
0.528516714248
0.530415919836
0.532266449466
0.534067388242
0.535743286863
0.537431281833
0.539055169532
0.540606357091
0.542082837585
0.543480550331
0.544719976429
0.545946316363
0.547070508402
0.548096097564
0.549019710587
0.549837213687
0.550544729764
0.551139741592
0.551546931614
0.551913425274
0.552164948482
0.552353385268
9.99867023449e-266
9.99867023449e-266
9.99867023449e-266
9.99867023449e-266
9.9986702345e-266
9.9986702345e-266
9.9986702345e-266
9.9986702345e-266
9.9986702345e-266
9.99867023451e-266
9.99867023451e-266
9.99867023459e-266
9.99867023931e-266
9.99867050159e-266
9.99868503424e-266
9.9994597751e-266
1.0040715311e-265
1.05888773952e-265
2.97419805616e-41
3.19019521727e-07
0.0202635032822
0.224684270272
0.356816375929
0.419443221117
0.446626762158
0.458519608247
0.464475063346
0.468594814862
0.472236030103
0.475628374936
0.478944702603
0.482087736251
0.485183713227
0.488177512104
0.491012997617
0.49382388938
0.496549934911
0.499144478965
0.501731009398
0.504259611005
0.50665872803
0.509067448226
0.511428116461
0.513733924115
0.515928934128
0.518139750449
0.520304077723
0.522350249309
0.524418721656
0.526427778099
0.52838178275
0.530282170055
0.53204943356
0.533821428401
0.53552132987
0.53715247461
0.538623636004
0.540087241834
0.541456701081
0.542729086123
0.543900994729
0.544968933775
0.545930486761
0.546702307964
0.547442316959
0.548063369063
0.548564094894
0.548944941259
0.549207511205
0.549398736144
9.99867023434e-266
9.99867023434e-266
9.99867023434e-266
9.99867023435e-266
9.99867023435e-266
9.99867023435e-266
9.99867023435e-266
9.99867023435e-266
9.99867023435e-266
9.99867023436e-266
9.99867023436e-266
9.99867023473e-266
9.99867025541e-266
9.99867140827e-266
9.99873430924e-266
1.00021193508e-265
1.01126400889e-265
1.07626620813e-99
3.82305998397e-22
2.51953758467e-05
0.0921670714459
0.274837310794
0.375519906991
0.421636445619
0.441758497848
0.450971151036
0.456293157411
0.460507705639
0.464336599935
0.468052809218
0.471569311877
0.475015343323
0.478289751927
0.481508003055
0.484630938734
0.487593956661
0.490528195205
0.493319455315
0.496088578988
0.498791159199
0.501355611093
0.503927825531
0.50643794544
0.508826522874
0.511225668756
0.513569458266
0.515864427217
0.51802807353
0.520212287222
0.522337404335
0.524401166737
0.52632562015
0.528255428716
0.530114501398
0.531894328337
0.533512891766
0.535131628916
0.53665249791
0.538077897584
0.539401446799
0.540620684378
0.541651348169
0.542649381021
0.543529757191
0.544292459221
0.544933897215
0.545453095492
0.545849404146
0.546123511281
0.546317571342
9.99867023421e-266
9.99867023421e-266
9.99867023421e-266
9.99867023421e-266
9.99867023421e-266
9.99867023421e-266
9.99867023422e-266
9.99867023422e-266
9.99867023422e-266
9.99867023422e-266
9.99867023426e-266
9.99867023617e-266
9.99867034183e-266
9.99867618658e-266
9.99898873912e-266
1.0015785902e-265
1.03008180235e-265
1.45468312223e-63
1.55325560961e-11
0.000645963737956
0.165363441155
0.3133656692
0.387399783657
0.420422787363
0.43533084909
0.442829765398
0.44790879868
0.452321687039
0.456420256357
0.460402688955
0.464173770492
0.467871893868
0.471372754679
0.474818967172
0.478152758436
0.481320556442
0.484452363266
0.487428990977
0.490390263388
0.493267930216
0.496006492127
0.498735510421
0.501401728154
0.503929022199
0.50646521458
0.508940640444
0.511285332414
0.513640516574
0.515931236226
0.518159616233
0.520248261386
0.522343869775
0.524365499577
0.526305253916
0.52808395563
0.529856277227
0.531534029275
0.533113660804
0.534594181
0.535887030703
0.53715104338
0.538298651171
0.539328252229
0.540238174406
0.541026178384
0.541692176628
0.542146308383
0.542559330357
0.542844767314
0.543042119939
9.99867023409e-266
9.99867023409e-266
9.99867023409e-266
9.99867023409e-266
9.99867023409e-266
9.99867023409e-266
9.99867023409e-266
9.9986702341e-266
9.9986702341e-266
9.9986702341e-266
9.99867023429e-266
9.99867024421e-266
9.99867077985e-266
9.99869953273e-266
1.00001854534e-265
1.00754248017e-265
1.09536488352e-265
2.81862769515e-29
2.91309599077e-06
0.0422402993868
0.228672239009
0.340607488649
0.393274881563
0.416906359609
0.428019514973
0.434479062853
0.439561497406
0.444157783622
0.448595541376
0.452787327636
0.456872817797
0.460743388161
0.464474280807
0.468142428759
0.471683135889
0.475050859926
0.478374057542
0.481532617386
0.484667108434
0.487646059631
0.49061121003
0.493499285904
0.496242581636
0.498993531417
0.501667474541
0.504193706543
0.506729488343
0.509197645318
0.511520194667
0.513850241203
0.51610749057
0.518290540734
0.520312558667
0.522334687203
0.524263710359
0.526101632089
0.527755027278
0.529395676947
0.530927678679
0.532349032103
0.533655162421
0.53484382864
0.535823443431
0.536765568448
0.537577997577
0.538263044368
0.538818517999
0.539244597754
0.539542026801
0.539743477006
9.99867023397e-266
9.99867023398e-266
9.99867023398e-266
9.99867023398e-266
9.99867023398e-266
9.99867023398e-266
9.99867023398e-266
9.99867023398e-266
9.99867023399e-266
9.99867023401e-266
9.99867023522e-266
9.99867030072e-266
9.99867383631e-266
9.99885891097e-266
1.00085541627e-265
1.02033662827e-265
3.74963943231e-99
1.30546701589e-17
0.000155398983554
0.123934504571
0.277030744864
0.357457976908
0.394174804835
0.411232627341
0.420031164645
0.42603491355
0.431204496988
0.436064950185
0.440768112404
0.4452194143
0.449564662907
0.453679667741
0.457637395718
0.461517068801
0.465192967867
0.468815725911
0.472256574562
0.475657722335
0.478964539342
0.482100141934
0.485221447365
0.488185717031
0.491142627227
0.494020816807
0.496747297162
0.499478012465
0.502138205497
0.504640451733
0.507145921965
0.50957302495
0.511837920561
0.514104824014
0.516283232632
0.518374201236
0.520283962057
0.522184724244
0.523981699318
0.525671678358
0.52725220858
0.528624104627
0.529970671838
0.53119238351
0.53228787861
0.533254727868
0.534091667328
0.534796321271
0.535371284933
0.535721913027
0.536033857096
0.53623922969
9.99867023387e-266
9.99867023387e-266
9.99867023388e-266
9.99867023388e-266
9.99867023388e-266
9.99867023388e-266
9.99867023388e-266
9.99867023388e-266
9.99867023389e-266
9.99867023404e-266
9.99867024197e-266
9.99867066639e-266
9.99869326375e-266
9.9998542345e-266
1.00585709203e-265
1.07819758956e-265
3.41285960408e-34
7.35075887344e-07
0.0185246521305
0.196651647846
0.310975537955
0.366374644497
0.39179622074
0.404219654699
0.411683196318
0.417611098247
0.422995091894
0.428112528293
0.433077667781
0.437779161082
0.442289951147
0.446691436702
0.450870272119
0.454965083432
0.458841721343
0.462657184413
0.46626804796
0.469844851167
0.473233973305
0.476596933703
0.479785627738
0.482962273402
0.486058060081
0.488980251702
0.491905839966
0.49475016934
0.49743783433
0.500123648034
0.50272749306
0.505161511599
0.507600488988
0.50995101215
0.512119925221
0.514278568207
0.516337366045
0.518292430746
0.520142412372
0.521784805057
0.523405461479
0.5249078084
0.526286716722
0.52754068286
0.528571800155
0.529562316884
0.530417597536
0.531141714336
0.531731065347
0.53218638801
0.532507212745
0.532716831431
9.99867023378e-266
9.99867023378e-266
9.99867023378e-266
9.99867023378e-266
9.99867023378e-266
9.99867023379e-266
9.99867023379e-266
9.99867023379e-266
9.99867023381e-266
9.99867023499e-266
9.99867029775e-266
9.99867363666e-266
9.99884617329e-266
1.00077372351e-265
1.01938379709e-265
3.25702832545e-99
1.56564373004e-18
9.47203168973e-05
0.102993628653
0.251921793135
0.331720318852
0.36900034627
0.386767483057
0.396487020987
0.403370771423
0.409375644667
0.415006695611
0.420377076054
0.425582091431
0.430509637272
0.435241785903
0.439859187857
0.444231754304
0.448443016648
0.452576623469
0.456495031255
0.46036411565
0.464022511035
0.467645316485
0.471076612292
0.474482313817
0.477790052171
0.480921957513
0.484048890571
0.487001270387
0.48995426772
0.492820347927
0.495510253454
0.498205287775
0.50080895209
0.503323726271
0.505652308476
0.507979547976
0.510205459193
0.512233111613