/*--------------------------------*- C++ -*----------------------------------*\
| =========                 |                                                 |
| \\      /  F ield         | foam-extend: Open Source CFD                    |
|  \\    /   O peration     | Version:     4.1                                |
|   \\  /    A nd           | Web:         http://www.foam-extend.org         |
|    \\/     M anipulation  |                                                 |
\*---------------------------------------------------------------------------*/
FoamFile
{
    version     2.0;
    format      ascii;
    class       volScalarField;
    location    "0.0007";
    object      O;
}
// * * * * * * * * * * * * * * * * * * * * * * * * * * * * * * * * * * * * * //

dimensions      [0 0 0 0 0 0 0];

internalField   nonuniform List<scalar> 
8400
(
7.2319983491e-54
7.23199834913e-54
7.23199834916e-54
7.23199834919e-54
7.23199834922e-54
7.23199834925e-54
7.23199834928e-54
7.23199834931e-54
7.23199834934e-54
7.23199834937e-54
7.2319983494e-54
7.23199834942e-54
7.23199834945e-54
7.23199834948e-54
7.2319983495e-54
7.23199834953e-54
7.23199834956e-54
7.23199834985e-54
7.23199836553e-54
7.23199927169e-54
7.23204997365e-54
7.2349154246e-54
7.3053339874e-54
6.27989784146e-19
0.114315162706
0.231992418926
0.196937100247
0.14745619277
0.115472718834
0.0998452407607
0.0933382343688
0.0909954211486
0.0902277543781
0.0899232284342
0.0897400800969
0.0895919366331
0.0894566180284
0.0893273180182
0.0892008917471
0.0890755102651
0.0889494356398
0.0888210218074
0.0886887269295
0.0885740782435
0.0884319106131
0.088283549011
0.088127553583
0.087963544802
0.08779101875
0.0876103483209
0.0874210880676
0.0872233910361
0.0870165328187
0.086801884129
0.0865808867226
0.0863556281813
0.0861279576786
0.0858995136673
0.0856721345416
0.0854696409225
0.0852528999608
0.0850471923674
0.0848551179935
0.0846794443078
0.0845227983882
0.08438734166
0.0842751154659
0.0841884190878
0.0841284678758
0.0840169151604
7.23199833973e-54
7.23199833974e-54
7.23199833976e-54
7.23199833977e-54
7.23199833978e-54
7.23199833979e-54
7.2319983398e-54
7.23199833982e-54
7.23199833983e-54
7.23199833984e-54
7.23199833985e-54
7.23199833986e-54
7.23199833987e-54
7.23199833989e-54
7.2319983399e-54
7.23199833991e-54
7.23199833994e-54
7.23199834134e-54
7.23199842232e-54
7.23200312009e-54
7.23226388843e-54
7.24699253614e-54
7.46264420375e-54
1.05176428225e-07
0.230829804705
0.227080296227
0.175326367754
0.13122615422
0.10627804219
0.0950984717527
0.0908129198226
0.0894325458078
0.0889983452498
0.0888161553142
0.0886835398547
0.0885588676556
0.0884331597719
0.0883044142289
0.0881720326729
0.0880356046893
0.0878946493109
0.0877275030737
0.087576043507
0.087418166544
0.0872538543331
0.0870823212707
0.0869029659271
0.0867150940575
0.0865193391132
0.0863161858725
0.08610580489
0.085888102619
0.0856626114413
0.0854310819071
0.0851957811428
0.0849586502429
0.0847211443839
0.0844837798446
0.0842728517395
0.0840452317014
0.0838274111758
0.0836224086917
0.0834329181731
0.0832604456149
0.0831071250335
0.082974859148
0.0828664872238
0.0827836207689
0.0827269227406
0.0826356955022
7.23199833535e-54
7.23199833536e-54
7.23199833537e-54
7.23199833538e-54
7.23199833538e-54
7.23199833539e-54
7.2319983354e-54
7.2319983354e-54
7.23199833541e-54
7.23199833542e-54
7.23199833543e-54
7.23199833543e-54
7.23199833544e-54
7.23199833545e-54
7.23199833545e-54
7.23199833546e-54
7.23199833558e-54
7.23199834199e-54
7.23199871879e-54
7.23202046984e-54
7.23325476174e-54
7.28158421826e-54
1.67502670286e-19
0.0347384686391
0.231788451489
0.20604358184
0.154171981644
0.117935339149
0.0997419274435
0.0921822971074
0.0895477969273
0.0887548663637
0.0884941804751
0.0883705359555
0.0882672464318
0.088164410025
0.0880582711178
0.0879258421826
0.0878087044061
0.0876850341121
0.0875548798757
0.0874181048926
0.0872741785571
0.0871224844508
0.086962569686
0.0867933404317
0.0866152254308
0.0864284185346
0.0862336704038
0.0860309256092
0.0858200730611
0.0856011384298
0.0853756279147
0.0851458061797
0.0849132607616
0.0846790432521
0.0844446841991
0.0842124331335
0.0839851649933
0.0837653390681
0.0835562368976
0.0833606602268
0.0831801024647
0.0830152360458
0.0828682742404
0.0827422141317
0.0826400665437
0.0825631471343
0.0825107988054
0.0824327657269
7.23199833275e-54
7.23199833275e-54
7.23199833276e-54
7.23199833276e-54
7.23199833277e-54
7.23199833277e-54
7.23199833278e-54
7.23199833278e-54
7.23199833279e-54
7.23199833279e-54
7.2319983328e-54
7.2319983328e-54
7.23199833281e-54
7.23199833281e-54
7.23199833282e-54
7.23199833283e-54
7.23199833338e-54
7.23199836525e-54
7.23200023283e-54
7.23210562e-54
7.23817525946e-54
7.35225466507e-54
1.52620681482e-18
0.221067555017
0.232098868538
0.186066858079
0.138328303842
0.109520618059
0.0962078147305
0.0909530092948
0.0892700932536
0.0887505109509
0.0885683491566
0.0884481383753
0.0883386931223
0.0882290628225
0.0881165137398
0.088000332208
0.0878576402141
0.0877305011324
0.0875965877083
0.0874558430851
0.0873079647537
0.0871521352783
0.0869879307907
0.0868142966398
0.0866315855432
0.0864400862414
0.0862407580738
0.0860336172212
0.0858187781302
0.0855962129777
0.0853678655442
0.0851360193546
0.0849022969567
0.0846677101365
0.0844336684562
0.0842028828943
0.0839780143677
0.0837833173632
0.0835775425212
0.0833856907317
0.0832086118102
0.0830482246305
0.0829065486237
0.0827860954756
0.0826882023867
0.0826135821935
0.0825624926638
0.0824916024935
7.23199833102e-54
7.23199833103e-54
7.23199833103e-54
7.23199833104e-54
7.23199833104e-54
7.23199833105e-54
7.23199833105e-54
7.23199833105e-54
7.23199833106e-54
7.23199833106e-54
7.23199833107e-54
7.23199833107e-54
7.23199833107e-54
7.23199833108e-54
7.23199833108e-54
7.23199833112e-54
7.23199833319e-54
7.23199845313e-54
7.23200540631e-54
7.23239126729e-54
7.25408512625e-54
7.54149388361e-54
1.65262935715e-05
0.231242064176
0.221921778932
0.169564330069
0.127412506959
0.104538182171
0.094499486902
0.0907509218736
0.0895773861429
0.0892065353202
0.0890331106792
0.0888963607448
0.0887658728151
0.0886351612213
0.0885023757395
0.0883664634939
0.0882265696255
0.0880818070121
0.0879314804591
0.0877533684522
0.0875894677853
0.0874177715536
0.0872384450779
0.0870509071166
0.0868546537813
0.0866497453063
0.0864370997339
0.0862176496101
0.0859911047334
0.0857793507797
0.0855410712495
0.0853003723031
0.0850592395601
0.0848185703637
0.0845799964393
0.0843458281893
0.0841184736586
0.0838999988102
0.0836932385317
0.0835004218619
0.0833232239019
0.0831634851809
0.0830231037342
0.0829035939566
0.0828065915494
0.0827327983599
0.0826824890436
0.082615609874
7.23199832981e-54
7.23199832982e-54
7.23199832982e-54
7.23199832982e-54
7.23199832983e-54
7.23199832983e-54
7.23199832983e-54
7.23199832984e-54
7.23199832984e-54
7.23199832984e-54
7.23199832985e-54
7.23199832985e-54
7.23199832985e-54
7.23199832986e-54
7.23199832986e-54
7.23199832995e-54
7.2319983353e-54
7.23199865094e-54
7.23201705129e-54
7.23306153043e-54
7.27877028309e-54
1.10558133285e-19
0.0254838712977
0.231746662568
0.207969023453
0.156445615535
0.120088768917
0.101680773192
0.0939586232247
0.0912011295111
0.0903388537533
0.0900070572113
0.0898134895229
0.089644008973
0.0894793237293
0.0893152942291
0.0891505473753
0.088984267653
0.0888155171542
0.0886430856257
0.0884661221249
0.0882837143869
0.0880952304396
0.0878996063065
0.0876963693726
0.0874856907831
0.0872681707475
0.0870436044117
0.0868118660191
0.0865730992187
0.0863286612763
0.0860801797035
0.085828476137
0.0855740624088
0.0853193122734
0.0850665122727
0.0848174613472
0.0845743981882
0.0843398698401
0.0841159017417
0.0839036481404
0.0837057066874
0.0835243429025
0.0833610789412
0.0832389033329
0.0831171922431
0.0830190097257
0.082944406949
0.0828935154752
0.0828062635155
7.23199832892e-54
7.23199832893e-54
7.23199832893e-54
7.23199832893e-54
7.23199832893e-54
7.23199832894e-54
7.23199832894e-54
7.23199832894e-54
7.23199832894e-54
7.23199832895e-54
7.23199832895e-54
7.23199832895e-54
7.23199832896e-54
7.23199832896e-54
7.23199832897e-54
7.23199832927e-54
7.23199834672e-54
7.23199936249e-54
7.2320565088e-54
7.23530448315e-54
7.31147699533e-54
7.33996180533e-19
0.133589452929
0.232028663207
0.194951654181
0.146147878382
0.115078526641
0.100224007084
0.0941429737897
0.0920747809938
0.0913957573702
0.0910663436386
0.0908372930198
0.0906264244275
0.0904203343138
0.0902163986837
0.0900136004982
0.089810693461
0.0896063389151
0.0893986962572
0.0891876586632
0.0889726217098
0.0887529908016
0.0885277959555
0.0882963931238
0.0880587075942
0.0878140594384
0.0875629100076
0.0873063625056
0.0870450931845
0.0867790077799
0.0865086605484
0.0862365732338
0.0859647841555
0.0856934524453
0.0854463137877
0.0851826967234
0.0849258137789
0.084678645875
0.0844438593002
0.0842229384153
0.0840174715171
0.0838290448431
0.0836601019461
0.0835122068377
0.083387189991
0.0832858000876
0.0832088704043
0.0831567159844
0.0830933854202
7.23199832825e-54
7.23199832825e-54
7.23199832825e-54
7.23199832825e-54
7.23199832826e-54
7.23199832826e-54
7.23199832826e-54
7.23199832826e-54
7.23199832826e-54
7.23199832827e-54
7.23199832827e-54
7.23199832827e-54
7.23199832827e-54
7.23199832828e-54
7.23199832829e-54
7.23199832915e-54
7.23199837904e-54
7.23200128135e-54
7.23216323567e-54
7.24134517635e-54
7.39649436395e-54
4.15591815742e-11
0.229463427024
0.231415692869
0.18303239004
0.138077859713
0.111713785017
0.0996100008363
0.0948613499894
0.0932523581934
0.0926632855102
0.0923219074926
0.0920549682801
0.0918009601295
0.0915511191763
0.0913037030004
0.0910583835021
0.0908139897073
0.0905689026278
0.090321825692
0.0900726724061
0.0898213471045
0.0895662850741
0.0893057131431
0.0890403722911
0.0887705743435
0.088495668275
0.088215202448
0.0879512730293
0.0876614548389
0.0873689330387
0.0870751728409
0.0867805023954
0.0864854516602
0.0861934044791
0.085906873419
0.085626926214
0.0853553077325
0.0850940956422
0.0848449022646
0.0846112653411
0.0843958568063
0.0841997913355
0.0840236658028
0.083890400976
0.0837591030347
0.0836527807798
0.0835722254634
0.0835180055213
0.0834553479842
7.23199832772e-54
7.23199832772e-54
7.23199832772e-54
7.23199832772e-54
7.23199832773e-54
7.23199832773e-54
7.23199832773e-54
7.23199832773e-54
7.23199832773e-54
7.23199832774e-54
7.23199832774e-54
7.23199832774e-54
7.23199832774e-54
7.23199832774e-54
7.23199832778e-54
7.2319983299e-54
7.23199845215e-54
7.23200550603e-54
7.23239555312e-54
7.25420054718e-54
7.54391752263e-54
1.50700039077e-05
0.231214011895
0.222981839891
0.172371573479
0.131729774178
0.109560543423
0.0996910916342
0.0959431841608
0.0946366416024
0.094114015443
0.0937635634363
0.0934536681938
0.0931330531227
0.0928378752907
0.0925463435054
0.0922572767673
0.0919689859891
0.0917020840134
0.0914124578461
0.0911221957567
0.0908307049582
0.0905361745093
0.0902374905368
0.0899357074879
0.0896308143258
0.0893218895606
0.0890092247355
0.0886921642916
0.0883726192132
0.0880525070378
0.0877312987222
0.0874098058482
0.0870912216678
0.0867767743331
0.0864894767841
0.0861892545288
0.0858995712099
0.0856220465338
0.0853577279948
0.0851101744073
0.0848821287506
0.0846750153764
0.0844901927491
0.0843281511022
0.0841908842949
0.0840793950537
0.0839945799822
0.0839369909621
0.0838731591561
7.2319983273e-54
7.2319983273e-54
7.2319983273e-54
7.2319983273e-54
7.2319983273e-54
7.2319983273e-54
7.23199832731e-54
7.23199832731e-54
7.23199832731e-54
7.23199832731e-54
7.23199832731e-54
7.23199832732e-54
7.23199832732e-54
7.23199832732e-54
7.2319983274e-54
7.23199833178e-54
7.23199858108e-54
7.23201274242e-54
7.23278978596e-54
7.27447942383e-54
2.47432222585e-20
0.0122959843112
0.231647369368
0.212612140954
0.162778335778
0.126873654272
0.108340550743
0.100345816521
0.0973412143106
0.0962596455985
0.0957441159018
0.0953509213964
0.0949890246409
0.0946376762577
0.0942921818996
0.0939502803977
0.0936125766404
0.0932777880071
0.0929431729948
0.0926098003324
0.0922770164881
0.0919432334582
0.0916077444244
0.0912689625604
0.0909283350741
0.0905857119652
0.0902391654196
0.0898903837251
0.0895401338071
0.0892097498111
0.08885823556
0.0885080072705
0.0881593198634
0.0878137857426
0.0874750158675
0.0871439954233
0.0868217046519
0.0865116216948
0.0862159128593
0.0859355915925
0.0856951739563
0.085452696122
0.0852334901761
0.0850381131751
0.0848678899397
0.084724042979
0.0846074941061
0.0845187933899
0.0844582299471
0.0843933417581
7.23199832695e-54
7.23199832695e-54
7.23199832696e-54
7.23199832696e-54
7.23199832696e-54
7.23199832696e-54
7.23199832696e-54
7.23199832696e-54
7.23199832697e-54
7.23199832697e-54
7.23199832697e-54
7.23199832697e-54
7.23199832697e-54
7.23199832698e-54
7.2319983272e-54
7.23199834025e-54
7.23199909538e-54
7.23204158484e-54
7.23443628528e-54
7.30021455004e-54
4.81760296749e-19
0.0877506221902
0.231920641231
0.201695231188
0.15437254291
0.123222309856
0.107865951898
0.101413546634
0.0990029799162
0.098066612667
0.0975326893651
0.0970878049481
0.0966665451566
0.096257625604
0.0958569173672
0.095461380901
0.0950724085933
0.0946875178395
0.0943055233134
0.0939241510361
0.0935449038869
0.0931663467396
0.0927856781513
0.0924272674926
0.0920447705272
0.0916626325408
0.0912779605956
0.0908923861629
0.0905072316382
0.0901221262837
0.0897376461986
0.089354810784
0.088976794793
0.0886267799948
0.0882603327796
0.0879050658896
0.0875611244312
0.0872304423352
0.0869144078762
0.0866159565788
0.086338532934
0.0860834674761
0.0858514156128
0.0856441848376
0.0854628562615
0.0853348775246
0.0852106372346
0.085116970688
0.0850535138619
0.0849889480869
7.23199832667e-54
7.23199832667e-54
7.23199832667e-54
7.23199832667e-54
7.23199832667e-54
7.23199832668e-54
7.23199832668e-54
7.23199832668e-54
7.23199832668e-54
7.23199832668e-54
7.23199832668e-54
7.23199832668e-54
7.23199832669e-54
7.2319983267e-54
7.23199832729e-54
7.23199836128e-54
7.23200032454e-54
7.23210970147e-54
7.23829826362e-54
7.35472465904e-54
1.48466578475e-18
0.217763700948
0.232119775166
0.190818401318
0.147004787919
0.120482792219
0.107988964428
0.102836863376
0.100882726219
0.100026994549
0.0994572424725
0.0989527805507
0.0984708517144
0.0980006712685
0.0975418057281
0.0970912512832
0.0966460829354
0.096207039566
0.0957938972771
0.0953634470508
0.0949344858963
0.0945085865353
0.0940836708439
0.0936586274555
0.0932353105275
0.0928119761522
0.0923874788683
0.0919859148615
0.0915619603215
0.0911414150278
0.0907239041373
0.0903101631339
0.0899005425204
0.0894991352453
0.0891071506615
0.0887257294163
0.0883794454438
0.0880253362142
0.0876899221571
0.0873740613248
0.0870801033721
0.0868091956022
0.086563586466
0.0863452062804
0.0861554331878
0.085995296149
0.0858658502106
0.0857676406436
0.0857007799745
0.0856351827464
7.23199832643e-54
7.23199832643e-54
7.23199832643e-54
7.23199832643e-54
7.23199832644e-54
7.23199832644e-54
7.23199832644e-54
7.23199832644e-54
7.23199832644e-54
7.23199832644e-54
7.23199832644e-54
7.23199832645e-54
7.23199832645e-54
7.23199832648e-54
7.23199832818e-54
7.23199842571e-54
7.23200401562e-54
7.23231145363e-54
7.24940075102e-54
7.4928813446e-54
1.8989655875e-07
0.230902000949
0.227764134962
0.180114518553
0.140793926837
0.118715843743
0.10858601776
0.104496250095
0.102916148716
0.102101269124
0.101491196828
0.100927603113
0.100383908762
0.0998532378416
0.0993528560645
0.0988416196517
0.0983403121408
0.0978460638098
0.0973574954597
0.0968755676271
0.0963962507553
0.0959214563996
0.0954703408057
0.095000493331
0.0945322737499
0.0940649257705
0.0936006480887
0.0931382601832
0.0926772324764
0.0922197620606
0.0917898035485
0.0913411709135
0.0909018909162
0.0904712409923
0.0900505825295
0.0896423162776
0.0892500780702
0.0888743513694
0.088540806773
0.0882050700085
0.0878930471548
0.0876060494385
0.0873470300033
0.0871174093896
0.0869179611219
0.0867495759349
0.0866132068161
0.0865095731261
0.086439064177
0.086372838048
7.23199832623e-54
7.23199832623e-54
7.23199832623e-54
7.23199832623e-54
7.23199832623e-54
7.23199832623e-54
7.23199832624e-54
7.23199832624e-54
7.23199832624e-54
7.23199832624e-54
7.23199832624e-54
7.23199832624e-54
7.23199832624e-54
7.23199832632e-54
7.23199833048e-54
7.23199856595e-54
7.23201183528e-54
7.23272946585e-54
7.27126051122e-54
7.72780816188e-54
0.00487021479852
0.231544056187
0.217213273216
0.170200774861
0.135852023285
0.117761655935
0.109704928578
0.106444748389
0.105108932684
0.104292898514
0.103628368431
0.103019293122
0.102410264118
0.101814747375
0.101233804323
0.100661574799
0.100102546473
0.0995516631077
0.0990294912977
0.0984912385588
0.0979611020002
0.097434424038
0.0969140583136
0.096397841849
0.0958833933912
0.0953956532517
0.0948877464435
0.0943839124063
0.0938855185611
0.0933918537669
0.0929030170732
0.0924226502533
0.0919739477402
0.09151152316
0.091062453981
0.0906290446547
0.0902124012383
0.0898132687993
0.089434693652
0.0891052140244
0.0887746517782
0.0884719254547
0.0881992308179
0.0879572881214
0.0877471298407
0.0875699056473
0.0874265691793
0.0873177159294
0.0872433786384
0.0871761946
7.23199832605e-54
7.23199832605e-54
7.23199832606e-54
7.23199832606e-54
7.23199832606e-54
7.23199832606e-54
7.23199832606e-54
7.23199832606e-54
7.23199832606e-54
7.23199832606e-54
7.23199832607e-54
7.23199832607e-54
7.23199832607e-54
7.23199832631e-54
7.23199833973e-54
7.23199910608e-54
7.2320417166e-54
7.23440733281e-54
7.30098979033e-54
4.48860261156e-19
0.0788249090525
0.23187609919
0.205592413669
0.161368142746
0.132168437646
0.11759496471
0.111215131339
0.108635612156
0.107429468237
0.106607527955
0.105875211446
0.105177719835
0.104499301645
0.103838937514
0.103192055174
0.102580834141
0.101960035228
0.101350465646
0.100751437962
0.100159959454
0.0995767008047
0.0990208105591
0.0984504169694
0.0978841151417
0.0973245311806
0.0967697271284
0.0962415621528
0.095696984719
0.0951593274698
0.0946271091267
0.0941037885349
0.0935900534003
0.0930853159358
0.0926172293211
0.0921387375299
0.0916787944629
0.0912373664653
0.0908164757426
0.0904176986991
0.0900423787576
0.0897207228045
0.0894031774539
0.0891169869425
0.0888627664334
0.0886410354564
0.0884541657576
0.0883032892307
0.0881893286248
0.0881118365694
0.088044518832
7.2319983259e-54
7.2319983259e-54
7.2319983259e-54
7.23199832591e-54
7.23199832591e-54
7.23199832591e-54
7.23199832591e-54
7.23199832591e-54
7.23199832591e-54
7.23199832591e-54
7.23199832591e-54
7.23199832591e-54
7.23199832593e-54
7.23199832667e-54
7.2319983688e-54
7.23200077272e-54
7.23213325608e-54
7.23953229196e-54
7.3727211925e-54
4.18045428218e-12
0.223917058041
0.232115639478
0.193560722541
0.153535381521
0.129517446625
0.118027391186
0.113080143893
0.110966088318
0.109856622751
0.108987162991
0.108183245121
0.10741023975
0.106681695118
0.105951384096
0.105240092245
0.104544149771
0.103862445921
0.103214976501
0.102557672236
0.101910655556
0.101273567454
0.100644468932
0.100047246653
0.0994324486535
0.0988262894567
0.0982271927642
0.0976322457764
0.0970694668662
0.0964911825012
0.0959219364131
0.0953614206832
0.0948138001847
0.0942778457575
0.0937795220499
0.0932742105909
0.0927862423698
0.0923197875844
0.0918762281331
0.0914570261163
0.0910639143011
0.0907241178755
0.0903901224501
0.0900903025995
0.0898243009812
0.0895930966959
0.0893982819082
0.0892409216359
0.0891215794077
0.0890403643756
0.0889724573486
7.23199832577e-54
7.23199832577e-54
7.23199832577e-54
7.23199832577e-54
7.23199832577e-54
7.23199832577e-54
7.23199832578e-54
7.23199832578e-54
7.23199832578e-54
7.23199832578e-54
7.23199832578e-54
7.23199832578e-54
7.23199832583e-54
7.23199832839e-54
7.23199847293e-54
7.2320065962e-54
7.23244504222e-54
7.25615599845e-54
7.56813155179e-54
1.52967621468e-05
0.231143004751
0.22627654296
0.181977844512
0.147183021299
0.127897506835
0.118975862915
0.115147443017
0.113419555507
0.112340359653
0.111417576506
0.110545417988
0.109721206886
0.108901554459
0.10810183146
0.107344067148
0.106581527619
0.105838940065
0.105109272264
0.104395412615
0.103714072112
0.103023664105
0.102342051572
0.101671980535
0.101031982172
0.100378160967
0.0997344588332
0.099097162376
0.0984703563592
0.0978758069902
0.0972688150576
0.0966728893373
0.0960898558986
0.095521657401
0.0949945925815
0.0944597993891
0.0939462768489
0.0934562713941
0.0929904003774
0.0925506655309
0.0921374798972
0.091782451976
0.0914328857677
0.0911192384502
0.0908412366516
0.0905999583273
0.0903969481943
0.0902330786007
0.0901086007861
0.0900236210511
0.0899548362398
7.23199832565e-54
7.23199832565e-54
7.23199832565e-54
7.23199832566e-54
7.23199832566e-54
7.23199832566e-54
7.23199832566e-54
7.23199832566e-54
7.23199832566e-54
7.23199832566e-54
7.23199832566e-54
7.23199832567e-54
7.23199832581e-54
7.23199833411e-54
7.23199880743e-54
7.23202529938e-54
7.23347815041e-54
7.28811653941e-54
1.81176301633e-19
0.0321319737865
0.231710540962
0.213863107756
0.171466441251
0.142406185388
0.127305958987
0.120457079462
0.117477784496
0.115971146125
0.114877730634
0.113910014087
0.112964565466
0.11204987659
0.111178496423
0.110312041245
0.109467606185
0.108642236948
0.107856419057
0.107068312718
0.106294678514
0.105536429057
0.104813073183
0.104080769352
0.103360611173
0.102649479484
0.101973008462
0.101284070068
0.100606172778
0.0999369407942
0.0993055188501
0.098660230807
0.09802952368
0.0974142515162
0.0968148479815
0.0962561951591
0.0956947133394
0.0951558203433
0.0946411520665
0.0941526197309
0.0936908474594
0.0932872636426
0.0928899380824
0.0925274768454
0.0922001252109
0.0919093535608
0.0916578743763
0.0914468285527
0.0912764199846
0.0911468744451
0.0910580185528
0.0909882633103
7.23199832555e-54
7.23199832555e-54
7.23199832555e-54
7.23199832555e-54
7.23199832555e-54
7.23199832555e-54
7.23199832555e-54
7.23199832556e-54
7.23199832556e-54
7.23199832556e-54
7.23199832556e-54
7.23199832557e-54
7.23199832619e-54
7.23199836063e-54
7.23200028305e-54
7.23210404523e-54
7.23774504207e-54
7.34803763298e-54
1.20164818611e-18
0.187524731129
0.232049065763
0.200510958772
0.162376569358
0.139086459119
0.12756017242
0.12237216979
0.120001775551
0.118612688957
0.117474736551
0.116414583324
0.115392960788
0.114422926187
0.113462361776
0.112548057852
0.111638551309
0.110749959463
0.109884029722
0.10905696719
0.108226236621
0.107412846268
0.10663778875
0.105852127553
0.1050823538
0.10432476421
0.103602801554
0.102868414823
0.102148662955
0.101440952874
0.100769667145
0.100089850669
0.0994255454567
0.0987769491979
0.098172356068
0.0975614413322
0.096972520996
0.0964086396174
0.0958705670518
0.0953601842072
0.0949070861802
0.0944577674954
0.0940450566092
0.0936680770604
0.0933281955006
0.0930268092342
0.0927659431642
0.0925461635487
0.0923959931739
0.0922607813536
0.0921681997761
0.0920976373447
7.23199832546e-54
7.23199832546e-54
7.23199832546e-54
7.23199832546e-54
7.23199832546e-54
7.23199832546e-54
7.23199832546e-54
7.23199832546e-54
7.23199832546e-54
7.23199832546e-54
7.23199832547e-54
7.23199832551e-54
7.23199832818e-54
7.2319984763e-54
7.23200668361e-54
7.23244421799e-54
7.25574325429e-54
7.56531742443e-54
9.08892033332e-06
0.231040359429
0.228456999787
0.187486061346
0.155102067944
0.137043371597
0.128460730211
0.124562486709
0.122603439265
0.121256683994
0.120064697665
0.118950604695
0.117855576297
0.116813035382
0.115781005255
0.114778867091
0.113824638188
0.112873948667
0.111948203345
0.111063446892
0.110178422964
0.109309485913
0.108482226453
0.107648762757
0.106829048944
0.106025288221
0.105258182054
0.104482638334
0.10372102099
0.102998358525
0.102265280203
0.10155066779
0.100853214037
0.100172853699
0.0995391360049
0.0989016583016
0.0982885258885
0.0976986786517
0.0971655133019
0.0966339515479
0.0961356679162
0.0956717433297
0.0952438114365
0.0948533621665
0.0945010490541
0.0942182191502
0.0939464874017
0.0937185655339
0.093534718857
0.0933948925101
0.0932986918024
0.0932277166413
7.23199832537e-54
7.23199832537e-54
7.23199832537e-54
7.23199832537e-54
7.23199832538e-54
7.23199832538e-54
7.23199832538e-54
7.23199832538e-54
7.23199832538e-54
7.23199832538e-54
7.23199832538e-54
7.23199832559e-54
7.23199833727e-54
7.23199898835e-54
7.23203451163e-54
7.2339462116e-54
7.29636272445e-54
2.78245242598e-19
0.0449340604337
0.231730175992
0.214739094931
0.175964804454
0.149915733897
0.136306530007
0.129948524603
0.126973949752
0.125256568568
0.123900016622
0.122663072755
0.12145649656
0.120308860324
0.11917860931
0.118099022351
0.117033211526
0.115993934386
0.115003156418
0.114017972601
0.11307603701
0.112136925301
0.111216183422
0.110339509098
0.109456342661
0.10859185437
0.107765701005
0.106932978871
0.106116953279
0.105314721105
0.104556274654
0.103787852108
0.103037953171
0.10230698796
0.101623942527
0.100935633175
0.100271178991
0.0996327578681
0.0990512091001
0.0984675996424
0.0979181969566
0.0974023535639
0.0969222154704
0.0964791858648
0.0961044267265
0.0957408244927
0.0954195438376
0.0951411645698
0.0949066972181
0.0947170079898
0.0945724021913
0.0944724730081
0.0944009214327
7.2319983253e-54
7.2319983253e-54
7.2319983253e-54
7.2319983253e-54
7.2319983253e-54
7.2319983253e-54
7.2319983253e-54
7.2319983253e-54
7.2319983253e-54
7.2319983253e-54
7.23199832532e-54
7.2319983264e-54
7.23199838607e-54
7.2320016869e-54
7.23217820073e-54
7.24166438722e-54
7.4026360871e-54
2.49788290477e-11
0.226506389114
0.232099218645
0.20020395372
0.166512342674
0.146499426553
0.136611409747
0.131926169926
0.129550268995
0.127944981708
0.12654430331
0.125237138233
0.1239593104
0.122742782935
0.121542862806
0.12040154222
0.1192717293
0.118173363992
0.117124698091
0.116083524234
0.115089061817
0.114095302018
0.113125644188
0.112198328532
0.111269652492
0.110358626837
0.109491215392
0.108617792941
0.107762012672
0.106947871914
0.106128086082
0.105327998085
0.104546744234
0.103812134604
0.103072397888
0.102356899474
0.101668680292
0.101035092344
0.100402990249
0.0998021845977
0.0992351677998
0.0987021327893
0.0982359884038
0.0977792668949
0.0973638910556
0.0969907305747
0.0966604192913
0.0963742011319
0.0961322908295
0.0959676101666
0.0958174343445
0.0957139378539
0.0956417832187
7.23199832523e-54
7.23199832523e-54
7.23199832523e-54
7.23199832523e-54
7.23199832523e-54
7.23199832523e-54
7.23199832523e-54
7.23199832523e-54
7.23199832523e-54
7.23199832524e-54
7.23199832534e-54
7.23199833094e-54
7.23199863345e-54
7.23201487162e-54
7.23285404431e-54
7.2753454159e-54
7.77132185108e-54
0.00302477042635
0.231421919838
0.22425857233
0.186648409814
0.159453326785
0.144746302679
0.13762562131
0.134171738824
0.132163382872
0.130582632027
0.129146405936
0.127751447536
0.126423776988
0.125121065184
0.123878840693
0.122675113026
0.121485125814
0.120331036335
0.119226913536
0.118131792975
0.117086440943
0.116044336427
0.115049280201
0.114053890303
0.113080793288
0.112152217973
0.111217180343
0.11030408364
0.109437462466
0.108564044702
0.107710590261
0.106905193865
0.106093361812
0.105304893057
0.104539257412
0.10382807809
0.103115058965
0.102432376045
0.101780150445
0.101192362265
0.100607702646
0.100060227217
0.0995508789977
0.0990822732202
0.0986550771654
0.098302385216
0.0979627083869
0.0976693096028
0.097421933409
0.0972210114324
0.0970671186638
0.0969599754386
0.0968869726012
7.23199832516e-54
7.23199832516e-54
7.23199832517e-54
7.23199832517e-54
7.23199832517e-54
7.23199832517e-54
7.23199832517e-54
7.23199832517e-54
7.23199832517e-54
7.23199832518e-54
7.23199832587e-54
7.23199836286e-54
7.23200035958e-54
7.23210488037e-54
7.23758026732e-54
7.34760028167e-54
1.04818936606e-18
0.158310761133
0.231949956623
0.2085852847
0.175491553601
0.154893493913
0.144425187622
0.139298150334
0.136609654055
0.134775821769
0.133191058728
0.131691714309
0.130230983003
0.128839510677
0.127472146432
0.126168972549
0.124907073057
0.123661074183
0.122474141923
0.1212986083
0.120176159767
0.119060574925
0.11797057807
0.116932077451
0.115893472074
0.114902952215
0.11391037321
0.112939359576
0.112016612952
0.111087850951
0.110179801992
0.109322749234
0.108459516812
0.107620294665
0.106834742649
0.106044943097
0.10528370256
0.104550490514
0.103879491975
0.103209284343
0.102574011517
0.101974919423
0.101413131647
0.100925081678
0.10044491681
0.10000816333
0.0996160809
0.0992696970061
0.0989696535863
0.0987166725269
0.0985102010819
0.098384770418
0.0982730459478
0.0981991970948
7.23199832511e-54
7.23199832511e-54
7.23199832511e-54
7.23199832511e-54
7.23199832511e-54
7.23199832511e-54
7.23199832511e-54
7.23199832511e-54
7.23199832511e-54
7.2319983252e-54
7.23199832968e-54
7.23199856937e-54
7.23201133122e-54
7.23266698867e-54
7.26582719766e-54
7.67436967329e-54
0.000201189338761
0.231185275664
0.228804861817
0.193687334093
0.167146925688
0.152392095601
0.14506652774
0.141368979687
0.139134276669
0.137352405759
0.135723596759
0.134164745643
0.132640725179
0.131187544533
0.129784124438
0.128405370203
0.127088212575
0.125789805045
0.124552618193
0.123326939335
0.122160156919
0.120998002985
0.119890825505
0.118786242826
0.117734469278
0.116681577562
0.115650461055
0.114672884605
0.113690026423
0.112730059823
0.111819097278
0.110905703661
0.110016035551
0.109182144061
0.108342377358
0.107530357779
0.106778836194
0.106026477042
0.105307817405
0.104622238694
0.103972034868
0.103393626125
0.102821315757
0.10228990976
0.101801000954
0.101355276092
0.100988988246
0.100635949109
0.100330913039
0.100072493887
0.0998623114781
0.0996999941354
0.0995857078577
0.0995109330822
7.23199832505e-54
7.23199832505e-54
7.23199832506e-54
7.23199832506e-54
7.23199832506e-54
7.23199832506e-54
7.23199832506e-54
7.23199832506e-54
7.23199832507e-54
7.23199832574e-54
7.23199836118e-54
7.23200024683e-54
7.23209768678e-54
7.237118908e-54
7.34221917397e-54
9.02082556387e-19
0.133438476284
0.231882533994
0.212704239925
0.181435109156
0.161793352371
0.151608224289
0.146489206377
0.143641237046
0.141617184122
0.139841063222
0.138159520924
0.136542594081
0.134963662251
0.133457743554
0.132001089574
0.130569581959
0.129206088071
0.127884187064
0.126578189788
0.125333235832
0.124096699275
0.122921054709
0.121749401013
0.12063212152
0.11951834153
0.118430210705
0.11739586779
0.116357836413
0.115373621024
0.11438494867
0.113420800111