/*--------------------------------*- C++ -*----------------------------------*\
| =========                 |                                                 |
| \\      /  F ield         | foam-extend: Open Source CFD                    |
|  \\    /   O peration     | Version:     4.1                                |
|   \\  /    A nd           | Web:         http://www.foam-extend.org         |
|    \\/     M anipulation  |                                                 |
\*---------------------------------------------------------------------------*/
FoamFile
{
    version     2.0;
    format      ascii;
    class       volScalarField;
    location    "0.0007";
    object      O2;
}
// * * * * * * * * * * * * * * * * * * * * * * * * * * * * * * * * * * * * * //

dimensions      [0 0 0 0 0 0 0];

internalField   nonuniform List<scalar> 
8400
(
0.232918
0.232918
0.232918
0.232918
0.232918
0.232918
0.232918
0.232918
0.232918
0.232918
0.232918
0.232918
0.232918
0.232918
0.232918
0.232918
0.232918
0.232918
0.232918
0.232918
0.232918
0.232918
0.232918
0.232917630326
0.104147690244
8.24401293616e-06
1.61626683866e-07
7.83936735727e-08
5.49379143917e-08
4.74789986743e-08
4.51411691646e-08
4.42701398477e-08
4.38553600658e-08
4.35726787564e-08
4.33345461114e-08
4.3117746782e-08
4.29149113999e-08
4.27223987331e-08
4.25357339414e-08
4.2352483673e-08
4.21701590606e-08
4.19875588591e-08
4.1802392706e-08
4.16402633155e-08
4.14451159543e-08
4.12432190742e-08
4.1033555806e-08
4.08145210157e-08
4.05853846413e-08
4.03485444004e-08
4.0101384597e-08
3.98439892446e-08
3.95783404217e-08
3.93040589675e-08
3.90238075062e-08
3.87406714366e-08
3.84548380451e-08
3.8170946182e-08
3.78901728189e-08
3.76405394956e-08
3.7377738042e-08
3.7128263952e-08
3.68970407883e-08
3.66867798034e-08
3.65000154434e-08
3.63397984593e-08
3.62091775629e-08
3.61094758812e-08
3.6042237672e-08
3.59892453106e-08
0.232918
0.232918
0.232918
0.232918
0.232918
0.232918
0.232918
0.232918
0.232918
0.232918
0.232918
0.232918
0.232918
0.232918
0.232918
0.232918
0.232918
0.232918
0.232918
0.232918
0.232918
0.232918
0.232918
0.232856096574
8.51831110434e-05
5.59383346202e-07
1.11614436949e-07
6.41051011069e-08
4.90915644526e-08
4.45660317296e-08
4.32300499107e-08
4.28020629534e-08
4.26118036363e-08
4.24929912569e-08
4.23786848922e-08
4.22603731521e-08
4.21373760091e-08
4.20083008987e-08
4.18722723112e-08
4.17288228642e-08
4.15784268122e-08
4.13935264547e-08
4.12256064545e-08
4.10488356642e-08
4.08632458357e-08
4.06665809746e-08
4.0458738462e-08
4.02400862068e-08
4.00095224526e-08
3.9768813655e-08
3.95186650343e-08
3.92579032038e-08
3.89889883928e-08
3.87120575929e-08
3.84308527519e-08
3.8147490247e-08
3.78629537546e-08
3.75809589182e-08
3.7329658129e-08
3.70612987027e-08
3.6804305133e-08
3.65621909951e-08
3.63400509607e-08
3.61382070542e-08
3.59594833414e-08
3.58074576194e-08
3.56833729405e-08
3.5588961541e-08
3.55253349833e-08
3.54769821687e-08
0.232918
0.232918
0.232918
0.232918
0.232918
0.232918
0.232918
0.232918
0.232918
0.232918
0.232918
0.232918
0.232918
0.232918
0.232918
0.232918
0.232918
0.232918
0.232918
0.232918
0.232918
0.232918
0.232917902632
0.187071567303
1.45783179215e-05
1.97614043998e-07
8.39425594071e-08
5.49596442319e-08
4.58058628583e-08
4.31669546904e-08
4.24256171754e-08
4.21800587197e-08
4.20656656316e-08
4.19971631345e-08
4.19243941976e-08
4.18431737486e-08
4.17525610148e-08
4.16263063382e-08
4.15161034674e-08
4.13949485569e-08
4.1262466379e-08
4.11196697577e-08
4.09657410447e-08
4.07992281403e-08
4.06198412094e-08
4.04283811525e-08
4.02235289036e-08
4.00056354449e-08
3.97778839576e-08
3.95378470151e-08
3.92867466443e-08
3.90260909816e-08
3.87562326522e-08
3.84822765378e-08
3.82037246654e-08
3.79231726384e-08
3.76431564432e-08
3.7365947189e-08
3.70972800834e-08
3.68370968732e-08
3.65902891271e-08
3.6359283377e-08
3.61457813013e-08
3.59532223648e-08
3.57834195634e-08
3.56384582962e-08
3.55206139633e-08
3.54314638961e-08
3.53720675669e-08
3.53289579375e-08
0.232918
0.232918
0.232918
0.232918
0.232918
0.232918
0.232918
0.232918
0.232918
0.232918
0.232918
0.232918
0.232918
0.232918
0.232918
0.232918
0.232918
0.232918
0.232918
0.232918
0.232918
0.232918
0.232917083009
0.00482977478893
3.35082079268e-06
1.31618116527e-07
6.93326688988e-08
5.03842429145e-08
4.46238282027e-08
4.29278984752e-08
4.24580641314e-08
4.2258021718e-08
4.216935167e-08
4.20881534067e-08
4.20032228647e-08
4.19110520412e-08
4.18106115825e-08
4.17012749345e-08
4.15568090343e-08
4.14279199011e-08
4.12876556859e-08
4.11361190631e-08
4.09739897256e-08
4.07989631582e-08
4.06106651775e-08
4.04099781177e-08
4.01959779114e-08
3.99687453284e-08
3.97318550331e-08
3.94833125339e-08
3.92242258409e-08
3.8956464691e-08
3.86805950583e-08
3.84016179589e-08
3.81194812228e-08
3.78365948726e-08
3.75555589001e-08
3.72785527256e-08
3.70115021273e-08
3.67788460806e-08
3.65345764166e-08
3.63076095096e-08
3.60984776785e-08
3.59102233244e-08
3.57452895015e-08
3.56050307895e-08
3.54910175841e-08
3.54043889958e-08
3.53458483455e-08
3.53050284746e-08
0.232918
0.232918
0.232918
0.232918
0.232918
0.232918
0.232918
0.232918
0.232918
0.232918
0.232918
0.232918
0.232918
0.232918
0.232918
0.232918
0.232918
0.232918
0.232918
0.232918
0.232918
0.232918
0.232332327598
4.55233964397e-05
3.6392507079e-07
1.03036172745e-07
6.14725913474e-08
4.84465732007e-08
4.45669644063e-08
4.34074938627e-08
4.30205406981e-08
4.28467688148e-08
4.27282084787e-08
4.26142393556e-08
4.24957785009e-08
4.23710849745e-08
4.22396124784e-08
4.21015238198e-08
4.19545734876e-08
4.17979144379e-08
4.16314967003e-08
4.14282802022e-08
4.12394198094e-08
4.10392608842e-08
4.08284181667e-08
4.0604873297e-08
4.03692822345e-08
4.01221854085e-08
3.98633410358e-08
3.9596488635e-08
3.93204734368e-08
3.90616926729e-08
3.87721565787e-08
3.84780646339e-08
3.8185363332e-08
3.78927612112e-08
3.76044740875e-08
3.73223689821e-08
3.70488913283e-08
3.67876408458e-08
3.65401315556e-08
3.6310924178e-08
3.61014649484e-08
3.59129833456e-08
3.57479410849e-08
3.560841542e-08
3.54951114074e-08
3.54090554442e-08
3.53508633382e-08
3.53102235123e-08
0.232918
0.232918
0.232918
0.232918
0.232918
0.232918
0.232918
0.232918
0.232918
0.232918
0.232918
0.232918
0.232918
0.232918
0.232918
0.232918
0.232918
0.232918
0.232918
0.232918
0.232918
0.232917935833
0.197378541123
1.61629238455e-05
2.08944595172e-07
8.72310324415e-08
5.73638098546e-08
4.79964469398e-08
4.52787250651e-08
4.44176072255e-08
4.40744831895e-08
4.38537438784e-08
4.36825031708e-08
4.35128014163e-08
4.33414376998e-08
4.3166525428e-08
4.29863692671e-08
4.2801393932e-08
4.26107651756e-08
4.24119260196e-08
4.22049166812e-08
4.19893977146e-08
4.17633684202e-08
4.15270179938e-08
4.12800187466e-08
4.10214592758e-08
4.07546413566e-08
4.04773703349e-08
4.01904590543e-08
3.98950444459e-08
3.95917668989e-08
3.92853417172e-08
3.89739491499e-08
3.86612223544e-08
3.8347926964e-08
3.80391916995e-08
3.77358852497e-08
3.7440932036e-08
3.71572700558e-08
3.68861763721e-08
3.66317849868e-08
3.63948397367e-08
3.61786313749e-08
3.59862964904e-08
3.58414966525e-08
3.56985512196e-08
3.55826943343e-08
3.54954358365e-08
3.54363724056e-08
3.53717795344e-08
0.232918
0.232918
0.232918
0.232918
0.232918
0.232918
0.232918
0.232918
0.232918
0.232918
0.232918
0.232918
0.232918
0.232918
0.232918
0.232918
0.232918
0.232918
0.232918
0.232918
0.232918
0.232917566581
0.0849449812826
7.3153657496e-06
1.55666709106e-07
7.76131413926e-08
5.53128123952e-08
4.85406251582e-08
4.64967806011e-08
4.58206128493e-08
4.54782705645e-08
4.51943197361e-08
4.49541113313e-08
4.47171259109e-08
4.44813344948e-08
4.42435455557e-08
4.40045457983e-08
4.37628556196e-08
4.35157699279e-08
4.32636779945e-08
4.30043116514e-08
4.27380868354e-08
4.24652634368e-08
4.21829727317e-08
4.18934145961e-08
4.15941410286e-08
4.1286152822e-08
4.09694885782e-08
4.06458441615e-08
4.03169349659e-08
3.99820919984e-08
3.96436149814e-08
3.93031409835e-08
3.89649280845e-08
3.86281600547e-08
3.83226007606e-08
3.79982388668e-08
3.76847158388e-08
3.73828057306e-08
3.7098184074e-08
3.68309768095e-08
3.65833469729e-08
3.63581695755e-08
3.61564798873e-08
3.59801220012e-08
3.58326490767e-08
3.57130132398e-08
3.56221181512e-08
3.55604741176e-08
3.55192083189e-08
0.232918
0.232918
0.232918
0.232918
0.232918
0.232918
0.232918
0.232918
0.232918
0.232918
0.232918
0.232918
0.232918
0.232918
0.232918
0.232918
0.232918
0.232918
0.232918
0.232918
0.232918
0.232913956224
0.000339011660505
1.52396449091e-06
1.27299522997e-07
7.15766014746e-08
5.46621391653e-08
4.96509591202e-08
4.81547752385e-08
4.75473774056e-08
4.71540747588e-08
4.68032703091e-08
4.64907117307e-08
4.61810310637e-08
4.5873026415e-08
4.55649923516e-08
4.52577240508e-08
4.49498275982e-08
4.46388185044e-08
4.43243273193e-08
4.40047753824e-08
4.3682428188e-08
4.33529041725e-08
4.30174233831e-08
4.26738862882e-08
4.23262561881e-08
4.1970985187e-08
4.16110209229e-08
4.12705261666e-08
4.09000092337e-08
4.05252250612e-08
4.01520529419e-08
3.97780091379e-08
3.9406880623e-08
3.90398777056e-08
3.86824441892e-08
3.83339599652e-08
3.79988011029e-08
3.76773145617e-08
3.73735759606e-08
3.70885966105e-08
3.68275734579e-08
3.65904392456e-08
3.63782290262e-08
3.62180435522e-08
3.60624256869e-08
3.59362359149e-08
3.58403233953e-08
3.57752334799e-08
3.57323783972e-08
0.232918
0.232918
0.232918
0.232918
0.232918
0.232918
0.232918
0.232918
0.232918
0.232918
0.232918
0.232918
0.232918
0.232918
0.232918
0.232918
0.232918
0.232918
0.232918
0.232918
0.232918
0.232369975199
4.76286285306e-05
3.93545608979e-07
1.09855296279e-07
6.78525232308e-08
5.50561606726e-08
5.13250659631e-08
5.01519596891e-08
4.95288642954e-08
4.90952728958e-08
4.86883677688e-08
4.82931322507e-08
4.78734714774e-08
4.74849468382e-08
4.71014540927e-08
4.67186721177e-08
4.63381836529e-08
4.59835644088e-08
4.56000660155e-08
4.52132598651e-08
4.4826116899e-08
4.44340201712e-08
4.4037640709e-08
4.36370467239e-08
4.32331613354e-08
4.28253538539e-08
4.24133070886e-08
4.19982938035e-08
4.15803576046e-08
4.11648087801e-08
4.07491951627e-08
4.03360342833e-08
3.99292537085e-08
3.95297452614e-08
3.91662472644e-08
3.8788691952e-08
3.84275421386e-08
3.80821924046e-08
3.77569734051e-08
3.74526241831e-08
3.71742250335e-08
3.69218906094e-08
3.66967107709e-08
3.65014338825e-08
3.63362237176e-08
3.6202179234e-08
3.61001335582e-08
3.60306002931e-08
3.59862032608e-08
0.232918
0.232918
0.232918
0.232918
0.232918
0.232918
0.232918
0.232918
0.232918
0.232918
0.232918
0.232918
0.232918
0.232918
0.232918
0.232918
0.232918
0.232918
0.232918
0.232918
0.232917985673
0.212821305419
2.04094549091e-05
2.44531215798e-07
9.79583374846e-08
6.59495064445e-08
5.63003800909e-08
5.35466131977e-08
5.25086824249e-08
5.1854788766e-08
5.13233074983e-08
5.08131709031e-08
5.0317090346e-08
4.98307416461e-08
4.93506215073e-08
4.88760568123e-08
4.84077119089e-08
4.79427026642e-08
4.74801818356e-08
4.70191143715e-08
4.65595939732e-08
4.61005715654e-08
4.56393612891e-08
4.51763491991e-08
4.47120387486e-08
4.42463967759e-08
4.37789823679e-08
4.33099553722e-08
4.2842392449e-08
4.24022230001e-08
4.19370028237e-08
4.14772165392e-08
4.10219405794e-08
4.05734711548e-08
4.01376657735e-08
3.97133810322e-08
3.93038635543e-08
3.8912034849e-08
3.85409531194e-08
3.81920900316e-08
3.78927578896e-08
3.75937265133e-08
3.73247289231e-08
3.7084987334e-08
3.68772668477e-08
3.67023692331e-08
3.65605264077e-08
3.64524544783e-08
3.63785452109e-08
3.63312396325e-08
0.232918
0.232918
0.232918
0.232918
0.232918
0.232918
0.232918
0.232918
0.232918
0.232918
0.232918
0.232918
0.232918
0.232918
0.232918
0.232918
0.232918
0.232918
0.232918
0.232918
0.232917717209
0.131093484706
1.01736167292e-05
1.83067034736e-07
8.98553090378e-08
6.54260696463e-08
5.82686778786e-08
5.61921377932e-08
5.52148125837e-08
5.44855032294e-08
5.38324944899e-08
5.32020615561e-08
5.25873250386e-08
5.19881410752e-08
5.14016214719e-08
5.08245507831e-08
5.02597858611e-08
4.970239923e-08
4.91506889745e-08
4.86034049189e-08
4.80610529174e-08
4.75214223999e-08
4.69829943074e-08
4.64773230166e-08
4.59415862082e-08
4.54091884854e-08
4.48771783837e-08
4.4346868952e-08
4.3820668339e-08
4.32993057757e-08
4.27819057325e-08
4.22699884889e-08
4.17700521234e-08
4.13079097192e-08
4.08289230964e-08
4.03684169987e-08
3.99249673723e-08
3.95021344617e-08
3.91012627266e-08
3.87243531247e-08
3.83766245186e-08
3.80575710051e-08
3.7769270794e-08
3.7513165618e-08
3.72900120288e-08
3.71316032092e-08
3.69800344753e-08
3.68646511715e-08
3.6785674816e-08
3.67358150945e-08
0.232918
0.232918
0.232918
0.232918
0.232918
0.232918
0.232918
0.232918
0.232918
0.232918
0.232918
0.232918
0.232918
0.232918
0.232918
0.232918
0.232918
0.232918
0.232918
0.232918
0.232917106901
0.00722838685197
4.19119673173e-06
1.49234998169e-07
8.42486586732e-08
6.58979481665e-08
6.08500630832e-08
5.92487660492e-08
5.82530964433e-08
5.7400373933e-08
5.66067929844e-08
5.58382822537e-08
5.50931688945e-08
5.43669379518e-08
5.36612728827e-08
5.29731854353e-08
5.22972568859e-08
5.16349428548e-08
5.10137386955e-08
5.03719150247e-08
4.97369921523e-08
4.91103502435e-08
4.84891092857e-08
4.78717282242e-08
4.72619346044e-08
4.66570732447e-08
4.60556392301e-08
4.54886231552e-08
4.48977637607e-08
4.4316271819e-08
4.37434783271e-08
4.31802676209e-08
4.26281766473e-08
4.2092081204e-08
4.15722859111e-08
4.10707791827e-08
4.06178803087e-08
4.01595207225e-08
3.97282582519e-08
3.93251275194e-08
3.89514060946e-08
3.8609567936e-08
3.8300563567e-08
3.80273119704e-08
3.77911896721e-08
3.75917528637e-08
3.74302239362e-08
3.7307952417e-08
3.72239185996e-08
3.71716945124e-08
0.232918
0.232918
0.232918
0.232918
0.232918
0.232918
0.232918
0.232918
0.232918
0.232918
0.232918
0.232918
0.232918
0.232918
0.232918
0.232918
0.232918
0.232918
0.232918
0.232918
0.232812849216
7.67754567239e-05
6.23905800371e-07
1.27389059824e-07
8.08061530791e-08
6.75071089125e-08
6.39225640318e-08
6.25849166521e-08
6.15553519467e-08
6.05579506478e-08
5.96148630409e-08
5.8699793247e-08
5.78130714793e-08
5.69536290905e-08
5.61481463321e-08
5.53329645224e-08
5.45389995003e-08
5.37620929449e-08
5.30000613252e-08
5.22541673151e-08
5.15189564556e-08
5.07979755406e-08
5.01167031121e-08
4.9415055148e-08
4.87212995163e-08
4.80351960269e-08
4.73596372516e-08
4.66942152814e-08
4.60369394228e-08
4.53912947321e-08
4.47877106907e-08
4.41662305239e-08
4.35633521374e-08
4.29782751065e-08
4.24117127503e-08
4.18662367426e-08
4.13472974484e-08
4.08550656697e-08
4.04184873282e-08
3.99858361066e-08
3.95850804992e-08
3.92186465095e-08
3.88891455855e-08
3.85984119027e-08
3.83458024461e-08
3.81340525638e-08
3.79624524417e-08
3.78313381534e-08
3.7741016018e-08
3.76852838149e-08
0.232918
0.232918
0.232918
0.232918
0.232918
0.232918
0.232918
0.232918
0.232918
0.232918
0.232918
0.232918
0.232918
0.232918
0.232918
0.232918
0.232918
0.232918
0.232918
0.232918
0.222538442167
2.54962231537e-05
2.96885027341e-07
1.13271460022e-07
7.94384721945e-08
7.010178377e-08
6.76456511653e-08
6.63466264918e-08
6.51802129385e-08
6.39926737044e-08
6.28742131534e-08
6.18234982712e-08
6.07787564276e-08
5.97650680576e-08
5.87852012239e-08
5.78315103724e-08
5.69076524803e-08
5.60079838189e-08
5.51612492898e-08
5.43000364758e-08
5.34596750694e-08
5.26332228728e-08
5.18244913051e-08
5.10302090127e-08
5.02475341871e-08
4.9510785995e-08
4.87544246755e-08
4.80114687447e-08
4.72841330941e-08
4.65712977781e-08
4.58730089029e-08
4.51950372259e-08
4.45665159562e-08
4.39277725322e-08
4.3312785343e-08
4.27244032246e-08
4.21642207293e-08
4.16330614081e-08
4.11338300494e-08
4.07001717162e-08
4.02714076842e-08
3.98793116195e-08
3.95292261525e-08
3.92187642634e-08
3.89506861827e-08
3.872496942e-08
3.85417767422e-08
3.84016818413e-08
3.8305360998e-08
3.82465720032e-08
0.232918
0.232918
0.232918
0.232918
0.232918
0.232918
0.232918
0.232918
0.232918
0.232918
0.232918
0.232918
0.232918
0.232918
0.232918
0.232918
0.232918
0.232918
0.232918
0.232917736507
0.140265843983
1.14656118574e-05
2.0687685364e-07
1.04271700934e-07
7.9957163971e-08
7.36988554242e-08
7.18604826681e-08
7.0510955167e-08
6.91087196589e-08
6.7741270736e-08
6.64152686973e-08
6.51442161282e-08
6.39181947025e-08
6.27380790345e-08
6.15975808373e-08
6.05307359319e-08
5.94629462597e-08
5.84261131805e-08
5.74199574757e-08
5.64375062293e-08
5.54808832664e-08
5.45780256205e-08
5.36649460852e-08
5.27686930525e-08
5.18933893759e-08
5.10366526965e-08
5.02275173045e-08
4.94057401234e-08
4.86032482902e-08
4.78183219614e-08
4.7055436334e-08
4.6315278662e-08
4.55973503091e-08
4.49362539298e-08
4.42702650046e-08
4.36354913652e-08
4.30332498464e-08
4.24644447904e-08
4.19301548518e-08
4.143208541e-08
4.10063615004e-08
4.05898942231e-08
4.02172280633e-08
3.98866540462e-08
3.96010397001e-08
3.9359893069e-08
3.91642267957e-08
3.90160830475e-08
3.89133560206e-08
3.88511467936e-08
0.232918
0.232918
0.232918
0.232918
0.232918
0.232918
0.232918
0.232918
0.232918
0.232918
0.232918
0.232918
0.232918
0.232918
0.232918
0.232918
0.232918
0.232918
0.232918
0.232916695662
0.00290862452217
4.31298276365e-06
1.63143507557e-07
9.84918610293e-08
8.19057231498e-08
7.8028486511e-08
7.65555817438e-08
7.49473980591e-08
7.33241802268e-08
7.17141365535e-08
7.01632705983e-08
6.86779575911e-08
6.72932275721e-08
6.59253653251e-08
6.46128000512e-08
6.334700873e-08
6.21240400283e-08
6.09758855548e-08
5.9830946304e-08
5.87175924937e-08
5.76363955278e-08
5.65840568487e-08
5.55943342446e-08
5.45928707828e-08
5.36176076799e-08
5.26665133128e-08
5.173631967e-08
5.08643691241e-08
4.99833721161e-08
4.91262842563e-08
4.82925235929e-08
4.74875959224e-08
4.67103846492e-08
4.59933886013e-08
4.52779503645e-08
4.45940788877e-08
4.39470601966e-08
4.33379804764e-08
4.27677337317e-08
4.22388853792e-08
4.17827018256e-08
4.13386128892e-08
4.0942706901e-08
4.05921064514e-08
4.02900189477e-08
4.00349730879e-08
3.98282791231e-08
3.96706691396e-08
3.95610037912e-08
3.94948711994e-08
0.232918
0.232918
0.232918
0.232918
0.232918
0.232918
0.232918
0.232918
0.232918
0.232918
0.232918
0.232918
0.232918
0.232918
0.232918
0.232918
0.232918
0.232918
0.232918
0.23236244384
5.31477132748e-05
5.36549277335e-07
1.38460932802e-07
9.59897640668e-08
8.52823826167e-08
8.29583590384e-08
8.14751327365e-08
7.96506752738e-08
7.77515292983e-08
7.58910603128e-08
7.41046032998e-08
7.24346055708e-08
7.08025006158e-08
6.92376559759e-08
6.77736017369e-08
6.63301962777e-08
6.49427624135e-08
6.36024441659e-08
6.23109198766e-08
6.10940857122e-08
5.98821726594e-08
5.87046833324e-08
5.75642437129e-08
5.64874865011e-08
5.54074211803e-08
5.43579731663e-08
5.33354413744e-08
5.23445367225e-08
5.1414629133e-08
5.0481426172e-08
4.95771058022e-08
4.87043994696e-08
4.78659066079e-08
4.70947785605e-08
4.63246253945e-08
4.55923452575e-08
4.49009581454e-08
4.42507852337e-08
4.36436264323e-08
4.30800602472e-08
4.25957950887e-08
4.21248730312e-08
4.17050807893e-08
4.13338432103e-08
4.10141226379e-08
4.07444216216e-08
4.05253495526e-08
4.03582128671e-08
4.02414476087e-08
4.01711090533e-08
0.232918
0.232918
0.232918
0.232918
0.232918
0.232918
0.232918
0.232918
0.232918
0.232918
0.232918
0.232918
0.232918
0.232918
0.232918
0.232918
0.232918
0.232918
0.232917894394
0.18991940787
1.74163660585e-05
2.69893856666e-07
1.24170401075e-07
9.64617531498e-08
9.01355173044e-08
8.85718668174e-08
8.68030097664e-08
8.46298460033e-08
8.24134308444e-08
8.03104214995e-08
7.82641440794e-08
7.63172132483e-08
7.44951812545e-08
7.27189346515e-08
7.10185687269e-08
6.93896744407e-08
6.78605638081e-08
6.63579644208e-08
6.49081022267e-08
6.35115962694e-08
6.21983029812e-08
6.08914840265e-08
5.96272037058e-08
5.84008081371e-08
5.72485436904e-08
5.60974971574e-08
5.49814283568e-08
5.38983187136e-08
5.28879825894e-08
5.18742211556e-08
5.08969482359e-08
4.99572800364e-08
4.9055371693e-08
4.82234436066e-08
4.74009638032e-08
4.66207180033e-08
4.58845627925e-08
4.51936155241e-08
4.45479340454e-08
4.39848815851e-08
4.3437584692e-08
4.29426115037e-08
4.24978735302e-08
4.21052571075e-08
4.17664307326e-08
4.14821661121e-08
4.12508014555e-08
4.10732534151e-08
4.09491969316e-08
4.0874503439e-08
0.232918
0.232918
0.232918
0.232918
0.232918
0.232918
0.232918
0.232918
0.232918
0.232918
0.232918
0.232918
0.232918
0.232918
0.232918
0.232918
0.232918
0.232918
0.232917279156
0.0331966783758
6.66985030165e-06
1.93355563908e-07
1.16336321222e-07
9.93791005378e-08
9.61352034766e-08
9.47116522093e-08
9.24708933664e-08
8.9898199133e-08
8.73317621272e-08
8.48812682629e-08
8.25519402651e-08
8.03794751393e-08
7.82781792601e-08
7.63130363486e-08
7.4403436528e-08
7.25742592088e-08
7.08265975671e-08
6.91864500604e-08
6.75721227887e-08
6.6023766859e-08
6.4568714499e-08
6.31257042629e-08
6.17358741379e-08
6.03920277423e-08
5.91301672558e-08
5.78717176311e-08
5.66567265627e-08
5.54846684628e-08
5.43860381726e-08
5.32941474209e-08
5.2243416581e-08
5.12349176238e-08
5.03044478488e-08
4.93814235088e-08
4.85030012423e-08
4.76729171754e-08
4.68908677072e-08
4.61583334345e-08
4.55107693692e-08
4.48786262328e-08
4.43022158639e-08
4.377956235e-08
4.3311818562e-08
4.29003388148e-08
4.25439992091e-08
4.22446308425e-08
4.20342617255e-08
4.18463743813e-08
4.17138996977e-08
4.16342712719e-08
0.232918
0.232918
0.232918
0.232918
0.232918
0.232918
0.232918
0.232918
0.232918
0.232918
0.232918
0.232918
0.232918
0.232918
0.232918
0.232918
0.232918
0.232918
0.232524611775
6.21424957209e-05
7.17892353517e-07
1.57865491715e-07
1.13528408755e-07
1.04230618585e-07
1.02824312052e-07
1.01064755532e-07
9.82760534446e-08
9.52783408281e-08
9.23587054687e-08
8.96260279366e-08
8.70013093279e-08
8.45541878847e-08
8.21946616497e-08
7.99538802794e-08
7.78600572941e-08
7.58239746567e-08
7.38838656299e-08
7.20642130496e-08
7.02834802355e-08
6.85733375465e-08
6.69712031988e-08
6.53925687488e-08
6.38686528685e-08
6.24043058719e-08
6.10273954247e-08
5.96657181824e-08
5.83518724842e-08
5.71235347394e-08
5.59022393443e-08
5.47295050823e-08
5.3604407972e-08
5.25263147238e-08
5.15325765287e-08
5.05516734431e-08
4.96208027935e-08
4.87389491323e-08
4.79481170206e-08
4.71732943648e-08
4.64541224836e-08
4.57908023739e-08
4.51837795428e-08
4.4634722432e-08
4.4144183215e-08
4.3747360704e-08
4.33729418456e-08
4.30566436565e-08
4.28001901259e-08
4.26027538834e-08
4.24628990948e-08
4.23780876148e-08
0.232918
0.232918
0.232918
0.232918
0.232918
0.232918
0.232918
0.232918
0.232918
0.232918
0.232918
0.232918
0.232918
0.232918
0.232918
0.232918
0.232918
0.23291783717
0.175949085304
1.65008092536e-05
2.8707550418e-07
1.40501899865e-07
1.15346130262e-07
1.11098991417e-07
1.10084295806e-07
1.07605193243e-07
1.04226449731e-07
1.00785517386e-07
9.75346336444e-08
9.44211631959e-08
9.15256666009e-08
8.87530426916e-08
8.61668304718e-08
8.36798033267e-08
8.13145096654e-08
7.91074546544e-08
7.69680432883e-08
7.49627596971e-08
7.30090396117e-08
7.11370651277e-08
6.93859214135e-08
6.766327747e-08
6.6011561491e-08
6.44600370694e-08
6.29324625758e-08
6.1462161932e-08
6.00467763407e-08
5.87272288123e-08
5.74207771139e-08
5.61664594488e-08
5.49669203857e-08
5.38597921197e-08
5.27663410045e-08
5.17247007166e-08
5.07395929539e-08
4.98506944886e-08
4.89758530499e-08
4.81614990322e-08
4.74060000831e-08
4.6710227565e-08
4.60747075297e-08
4.55364501084e-08
4.50218400858e-08
4.4569613236e-08
4.41777516185e-08
4.38485604754e-08
4.3579914893e-08
4.33715618409e-08
4.32237721528e-08
4.31338759376e-08
0.232918
0.232918
0.232918
0.232918
0.232918
0.232918
0.232918
0.232918
0.232918
0.232918
0.232918
0.232918
0.232918
0.232918
0.232918
0.232918
0.232918
0.232915166531
0.00147088258001
5.03805968137e-06
2.01538846166e-07
1.33223676966e-07
1.20435535883e-07
1.19319876694e-07
1.1771915059e-07
1.14303116503e-07
1.10331238877e-07
1.06426701494e-07
1.02778462038e-07
9.93115524879e-08
9.60935311752e-08
9.30163834808e-08
9.01601835002e-08
8.74154051116e-08
8.48153080917e-08
8.23899252603e-08
8.00462850889e-08
7.78556412685e-08
7.57236769498e-08
7.36903430723e-08
7.17860302315e-08
6.99238233291e-08
6.81345651343e-08
6.64642090922e-08
6.48207889716e-08
6.32434982375e-08
6.17699345489e-08
6.03176575929e-08
5.8926390121e-08
5.75947492757e-08
5.63609615758e-08
5.51459572078e-08
5.39887520312e-08
5.28926482681e-08
5.18964256007e-08
5.09205479343e-08
5.00055802046e-08
4.91523732541e-08
4.83609227086e-08
4.76713784772e-08
4.70068427387e-08
4.64065079691e-08
4.58700059007e-08
4.53974150444e-08
4.49895993853e-08
4.46450275982e-08
4.44027070252e-08
4.41848551452e-08
4.40286855046e-08
4.39326418511e-08
0.232918
0.232918
0.232918
0.232918
0.232918
0.232918
0.232918
0.232918
0.232918
0.232918
0.232918
0.232918
0.232918
0.232918
0.232918
0.232918
0.232918
0.225092499313
3.21029094876e-05
4.73580189267e-07
1.67278944732e-07
1.32987142983e-07
1.28268197113e-07
1.27940890459e-07
1.25239712375e-07
1.20924960074e-07
1.16372403103e-07
1.12066145175e-07
1.07976409204e-07
1.04191061203e-07
1.0059383504e-07
9.72615709505e-08
9.41247030676e-08
9.11183083424e-08
8.82808871841e-08
8.56354591609e-08
8.30869963231e-08
8.07076141139e-08
7.84017020798e-08
7.62462364238e-08
7.41486484208e-08
7.21447967965e-08
7.02707825537e-08
6.84317577174e-08
6.667509314e-08
6.50366039278e-08
6.34236180594e-08
6.18816435385e-08
6.04471668104e-08
5.90381123613e-08
5.76924934414e-08
5.64122893408e-08
5.52379655236e-08
5.40844181571e-08
5.29974635144e-08
5.19759643072e-08
5.10625028458e-08
5.01711657399e-08
4.93460819783e-08
4.85874897567e-08
4.78955353719e-08
4.7270913262e-08
4.67535649157e-08
4.62615688263e-08
4.58372233723e-08
4.54780315241e-08
4.51853492183e-08
4.49569070823e-08
4.47920574771e-08
4.46894257918e-08
0.232918
0.232918
0.232918
0.232918
0.232918
0.232918
0.232918
0.232918
0.232918
0.232918
0.232918
0.232918
0.232918
0.232918
0.232918
0.232918
0.232917371713
0.0607498656254
9.13081429877e-06
2.49940015647e-07
1.54160816785e-07
1.3860115617e-07
1.38150698946e-07
1.36844820186e-07
1.32651141698e-07
1.27487201351e-07
1.22423547219e-07
1.17656366786e-07
1.13158593082e-07
1.090072669e-07
1.05071580095e-07
1.0143342907e-07
9.80141958746e-08
9.47492566766e-08
9.17194540172e-08
8.88108438683e-08
8.61026745335e-08
8.3490912904e-08
8.10072463047e-08
7.86938784122e-08
7.64460038322e-08
7.43470606237e-08
7.23003172236e-08
7.03457760477e-08
6.85228923635e-08
6.67362437379e-08
6.50283106597e-08
6.34423981212e-08
6.18854912309e-08
6.04011392266e-08
5.90318652174e-08
5.76879940408e-08
5.64146540084e-08
5.52102308605e-08
5.41198797707e-08
5.30545035736e-08
5.20581367892e-08
5.11313856801e-08
5.02745695646e-08
4.95319400937e-08
4.88139774701e-08
4.81655363025e-08
4.75876841887e-08
4.70787807329e-08
4.66380031741e-08
4.6266280637e-08
4.59613919215e-08
4.57645117502e-08
4.55912142197e-08
4.54826622175e-08
0.232918
0.232918
0.232918
0.232918
0.232918
0.232918
0.232918
0.232918
0.232918
0.232918
0.232918
0.232918
0.232918
0.232918
0.232918
0.232918
0.231254310904
4.88573422433e-05
7.93475972219e-07
1.93219892831e-07
1.5240908981e-07
1.48002487749e-07
1.48491317143e-07
1.45405353653e-07
1.39857183352e-07
1.33928566635e-07
1.28332572592e-07
1.23115184647e-07
1.1820813336e-07
1.13686883799e-07
1.0946961481e-07
1.05477356344e-07
1.01779953852e-07
9.82569355669e-08
9.49958980561e-08
9.18684703423e-08
8.89648875857e-08
8.61649113202e-08
8.35622655512e-08
8.1045344212e-08
7.87014411015e-08
7.64219502927e-08
7.42465025712e-08
7.2226471054e-08
7.0251336159e-08
6.83670345706e-08
6.66130079378e-08
6.48982076461e-08
6.32652529028e-08
6.17577137367e-08
6.02801072668e-08
5.88771094546e-08
5.75962542203e-08
5.63421682329e-08
5.51619948855e-08
5.40561016156e-08
5.30234823077e-08
5.21110724372e-08
5.12256096496e-08
5.04116043828e-08
4.96702318662e-08
4.90010357945e-08
4.84472594973e-08
4.79226427202e-08
4.74678619246e-08
4.70830327225e-08
4.67664728074e-08
4.65177159095e-08
4.63365001533e-08
4.62205120779e-08
0.232918
0.232918
0.232918
0.232918
0.232918
0.232918
0.232918
0.232918
0.232918
0.232918
0.232918
0.232918
0.232918
0.232918
0.232918
0.232917460757
0.0850276355421
1.09865250082e-05
2.89332946587e-07
1.74525534218e-07
1.59002145344e-07
1.59829794718e-07
1.58715150273e-07
1.53362825491e-07
1.46667469891e-07
1.40122868297e-07
1.34016373634e-07
1.28354002948e-07
1.23048110898e-07
1.18171750675e-07
1.13627952135e-07
1.09331390084e-07
1.05366300208e-07
1.0165092318e-07
9.81079345567e-08
9.48267944639e-08
9.16760788227e-08
8.87565597898e-08
8.59411554763e-08
8.33213474893e-08
8.07874114999e-08
7.83799801432e-08
7.61418547693e-08
7.39618172671e-08
7.19356278019e-08
6.99564923298e-08
6.80732545227e-08
6.63309650705e-08
6.46239855676e-08
6.30026201278e-08
6.14650161774e-08
6.00574677817e-08
5.86798663809e-08
5.73814418876e-08
5.62081016985e-08
5.50654299672e-08
5.40015686584e-08
5.3011637138e-08
5.2098167087e-08
5.13074620046e-08
5.05440429543e-08
4.98549167089e-08
4.92400147813e-08
4.86989717617e-08
4.82296666354e-08
4.78339426281e-08
4.75524762481e-08
4.72945337999e-08
4.71049158814e-08
4.69815557747e-08
0.232918
0.232918
0.232918
0.232918
0.232918
0.232918
0.232918
0.232918
0.232918
0.232918
0.232918
0.232918
0.232918
0.232918
0.232918
0.230672647169
4.86865529396e-05
9.52545212409e-07
2.14373363488e-07
1.73101881989e-07
1.708716088e-07
1.72000789862e-07
1.67900515537e-07
1.60672980496e-07
1.53114706716e-07
1.45982286507e-07
1.39387855605e-07
1.33299448527e-07
1.27663391064e-07
1.22384469011e-07
1.17528574433e-07
1.13005758476e-07
1.08726251514e-07
1.04777282206e-07
1.0101552175e-07
9.75380878883e-08
9.42634264093e-08
9.11211687785e-08
8.82061311397e-08
8.53948681834e-08
8.27314466907e-08
8.02576476918e-08
7.7857035167e-08
7.56300452224e-08
7.34594138383e-08
7.13963161742e-08
6.94856410822e-08
6.76193929604e-08
6.58478345185e-08
6.42188441703e-08
6.26246303911e-08
6.1121408752e-08
5.97479333452e-08
5.84113658442e-08
5.71532429198e-08
5.59768970483e-08
5.49315242812e-08
5.39166870258e-08
5.29785126439e-08
5.21187375603e-08
5.1336278748e-08
5.06825569752e-08
5.00520152139e-08
4.94967340694e-08
4.9014208954e-08
4.86052457329e-08
4.82669373348e-08
4.79992662476e-08
4.78001263225e-08
4.76682270445e-08
0.232918
0.232918
0.232918
0.232918
0.232918
0.232918
0.232918