/*--------------------------------*- C++ -*----------------------------------*\
| =========                 |                                                 |
| \\      /  F ield         | foam-extend: Open Source CFD                    |
|  \\    /   O peration     | Version:     4.1                                |
|   \\  /    A nd           | Web:         http://www.foam-extend.org         |
|    \\/     M anipulation  |                                                 |
\*---------------------------------------------------------------------------*/
FoamFile
{
    version     2.0;
    format      ascii;
    class       volScalarField;
    location    "0.0007";
    object      O2Plus;
}
// * * * * * * * * * * * * * * * * * * * * * * * * * * * * * * * * * * * * * //

dimensions      [0 0 0 0 0 0 0];

internalField   nonuniform List<scalar> 
8400
(
2.93247975459e-108
2.9324797546e-108
2.93247975462e-108
2.93247975463e-108
2.93247975465e-108
2.93247975466e-108
2.93247975468e-108
2.93247975469e-108
2.9324797547e-108
2.93247975472e-108
2.93247975473e-108
2.93247975474e-108
2.93247975476e-108
2.93247975477e-108
2.93247975478e-108
2.93247975479e-108
2.93247975481e-108
2.93247975495e-108
2.93247976241e-108
2.93248019402e-108
2.93250434342e-108
2.93386916066e-108
2.96740959489e-108
1.41975847731e-42
1.52646796466e-11
9.69632901355e-08
2.03807568343e-07
2.28305571119e-07
2.37904294202e-07
2.47036609364e-07
2.53412347167e-07
2.55568588376e-07
2.55633492546e-07
2.55080515912e-07
2.54408768818e-07
2.5374578047e-07
2.53113554153e-07
2.52509167629e-07
2.51925156913e-07
2.51354486072e-07
2.50789563159e-07
2.50223213903e-07
2.49651425306e-07
2.49146803501e-07
2.48549560892e-07
2.47930473562e-07
2.47286045203e-07
2.46614790981e-07
2.45914292469e-07
2.45184630425e-07
2.44423408904e-07
2.43631214318e-07
2.42807469931e-07
2.41958373312e-07
2.4108895589e-07
2.40204768217e-07
2.39311627518e-07
2.38417342903e-07
2.37533548606e-07
2.36743152733e-07
2.35909170654e-07
2.35116457077e-07
2.34376897294e-07
2.33702182261e-07
2.33103890504e-07
2.32591203903e-07
2.32171919195e-07
2.31854357828e-07
2.31643899425e-07
2.31642157694e-07
2.93247975013e-108
2.93247975013e-108
2.93247975014e-108
2.93247975014e-108
2.93247975015e-108
2.93247975016e-108
2.93247975016e-108
2.93247975017e-108
2.93247975017e-108
2.93247975018e-108
2.93247975018e-108
2.93247975019e-108
2.9324797502e-108
2.9324797502e-108
2.93247975021e-108
2.93247975021e-108
2.93247975023e-108
2.9324797509e-108
2.93247978946e-108
2.93248202702e-108
2.93260623125e-108
2.93962150137e-108
3.04233661347e-108
1.46681533256e-22
1.54991923868e-08
1.64151685042e-07
2.16131296141e-07
2.30116554826e-07
2.37847335505e-07
2.46139257969e-07
2.51022962619e-07
2.52621252356e-07
2.52856108582e-07
2.52754810674e-07
2.52544935641e-07
2.52294624518e-07
2.52018270625e-07
2.51718000172e-07
2.51393481942e-07
2.51043405468e-07
2.50663295563e-07
2.50177704865e-07
2.49736222423e-07
2.49263353187e-07
2.48756853805e-07
2.48213664248e-07
2.47631606576e-07
2.47007806178e-07
2.46343956814e-07
2.45641397304e-07
2.44901467494e-07
2.44125728443e-07
2.43314918426e-07
2.42476116976e-07
2.41616559304e-07
2.40742147346e-07
2.39859090068e-07
2.38975332519e-07
2.38185627378e-07
2.37336766132e-07
2.36518850808e-07
2.35744894768e-07
2.35027081599e-07
2.34375158416e-07
2.33799125774e-07
2.33305577159e-07
2.32903218168e-07
2.32598032223e-07
2.32394507684e-07
2.32364466747e-07
2.93247974804e-108
2.93247974804e-108
2.93247974805e-108
2.93247974805e-108
2.93247974806e-108
2.93247974806e-108
2.93247974806e-108
2.93247974807e-108
2.93247974807e-108
2.93247974807e-108
2.93247974808e-108
2.93247974808e-108
2.93247974808e-108
2.93247974809e-108
2.93247974809e-108
2.93247974809e-108
2.93247974815e-108
2.9324797512e-108
2.93247993067e-108
2.93249029072e-108
2.93307818523e-108
2.95609755531e-108
3.81589871916e-43
3.83361107357e-13
6.56045607093e-08
1.94810536435e-07
2.23803371475e-07
2.32126889309e-07
2.40021331022e-07
2.47108652274e-07
2.50451202006e-07
2.5136031019e-07
2.51496593968e-07
2.5148387435e-07
2.51396963794e-07
2.51267616905e-07
2.51101034833e-07
2.50821509346e-07
2.50578847139e-07
2.50299301319e-07
2.49980771873e-07
2.49622949356e-07
2.49224425465e-07
2.48783245542e-07
2.48298261349e-07
2.47766279648e-07
2.47189617888e-07
2.46568790784e-07
2.45905916875e-07
2.45200681434e-07
2.44454653964e-07
2.43670829597e-07
2.4285598495e-07
2.42017241252e-07
2.41159014731e-07
2.40286173614e-07
2.39407982886e-07
2.38536565921e-07
2.3768411494e-07
2.36857237588e-07
2.36064718951e-07
2.35317059168e-07
2.34624973203e-07
2.33998067012e-07
2.33446146464e-07
2.32976262341e-07
2.32593272596e-07
2.32301708044e-07
2.32107452653e-07
2.32067351455e-07
2.9324797468e-108
2.9324797468e-108
2.93247974681e-108
2.93247974681e-108
2.93247974681e-108
2.93247974681e-108
2.93247974682e-108
2.93247974682e-108
2.93247974682e-108
2.93247974682e-108
2.93247974683e-108
2.93247974683e-108
2.93247974683e-108
2.93247974683e-108
2.93247974684e-108
2.93247974684e-108
2.9324797471e-108
2.93247976228e-108
2.93248065181e-108
2.93253084783e-108
2.93542182337e-108
2.98975796214e-108
3.40683134748e-42
8.35743524798e-10
1.30089548555e-07
2.10073003979e-07
2.27844590685e-07
2.35173033274e-07
2.43576803064e-07
2.49183032313e-07
2.51354677999e-07
2.51761933572e-07
2.51812871975e-07
2.5173174759e-07
2.51599887553e-07
2.51433419188e-07
2.51234347865e-07
2.51000513308e-07
2.5065323691e-07
2.50343479901e-07
2.4999519246e-07
2.49606291387e-07
2.4917601888e-07
2.48701860824e-07
2.48182912987e-07
2.47616168987e-07
2.47003793041e-07
2.46346952552e-07
2.45648874316e-07
2.44909882264e-07
2.44132536871e-07
2.43319587329e-07
2.4247902633e-07
2.41618167251e-07
2.4074224384e-07
2.3985674684e-07
2.38970307962e-07
2.38094958253e-07
2.37242922891e-07
2.36496860181e-07
2.35710156813e-07
2.3497263761e-07
2.34293303021e-07
2.33680181094e-07
2.33139747385e-07
2.32679824444e-07
2.32305723234e-07
2.32021984596e-07
2.31831914608e-07
2.31786937009e-07
2.93247974598e-108
2.93247974598e-108
2.93247974598e-108
2.93247974599e-108
2.93247974599e-108
2.93247974599e-108
2.93247974599e-108
2.93247974599e-108
2.932479746e-108
2.932479746e-108
2.932479746e-108
2.932479746e-108
2.932479746e-108
2.93247974601e-108
2.93247974601e-108
2.93247974603e-108
2.93247974701e-108
2.93247980414e-108
2.93248311595e-108
2.93266690193e-108
2.94299970937e-108
3.07989279747e-108
6.64619217228e-22
2.55459580164e-08
1.75113609662e-07
2.19016890116e-07
2.31210178632e-07
2.39446514637e-07
2.47686558163e-07
2.5204852016e-07
2.5330608215e-07
2.53453260267e-07
2.53340124621e-07
2.53141510499e-07
2.52905074237e-07
2.52639324317e-07
2.52344307947e-07
2.5201823109e-07
2.51659297107e-07
2.51265509015e-07
2.5083262709e-07
2.50283850335e-07
2.49769905179e-07
2.49215834735e-07
2.48620652481e-07
2.47982847894e-07
2.47301108452e-07
2.46575731392e-07
2.45810321348e-07
2.45009542471e-07
2.44176725902e-07
2.43389421694e-07
2.42500531463e-07
2.41593378764e-07
2.40678490132e-07
2.39761446421e-07
2.38850323176e-07
2.37954276144e-07
2.37081630374e-07
2.36240154154e-07
2.35441550097e-07
2.34696646164e-07
2.34013480732e-07
2.3339899215e-07
2.32859249639e-07
2.32399199558e-07
2.32025287384e-07
2.31741475136e-07
2.31550543457e-07
2.31498523097e-07
2.9324797454e-108
2.9324797454e-108
2.93247974541e-108
2.93247974541e-108
2.93247974541e-108
2.93247974541e-108
2.93247974541e-108
2.93247974541e-108
2.93247974542e-108
2.93247974542e-108
2.93247974542e-108
2.93247974542e-108
2.93247974542e-108
2.93247974542e-108
2.93247974543e-108
2.93247974547e-108
2.93247974801e-108
2.93247989836e-108
2.93248866246e-108
2.93298614895e-108
2.95475727508e-108
2.52096622735e-43
1.57960324142e-13
6.05667162721e-08
1.93562821652e-07
2.24924029794e-07
2.35306362461e-07
2.44624755179e-07
2.52405250543e-07
2.55717992088e-07
2.5639818029e-07
2.56229028982e-07
2.55917587636e-07
2.55550207296e-07
2.55155668019e-07
2.54738680838e-07
2.54298724381e-07
2.53834411396e-07
2.53343321472e-07
2.5282192104e-07
2.5226794686e-07
2.51679101663e-07
2.51054175397e-07
2.5039013954e-07
2.49686068604e-07
2.48943363351e-07
2.48164612621e-07
2.47348944719e-07
2.46496315932e-07
2.45608749619e-07
2.44693186993e-07
2.43756661793e-07
2.42801909852e-07
2.41831666577e-07
2.40856549344e-07
2.39887325898e-07
2.38931108671e-07
2.3799476446e-07
2.37086972588e-07
2.36216992417e-07
2.35392432461e-07
2.34624234084e-07
2.33921417658e-07
2.33292621524e-07
2.32816970242e-07
2.32349687256e-07
2.31969543596e-07
2.3168036958e-07
2.31485214276e-07
2.31351874627e-07
2.93247974498e-108
2.93247974498e-108
2.93247974498e-108
2.93247974498e-108
2.93247974498e-108
2.93247974499e-108
2.93247974499e-108
2.93247974499e-108
2.93247974499e-108
2.93247974499e-108
2.93247974499e-108
2.93247974499e-108
2.93247974499e-108
2.932479745e-108
2.932479745e-108
2.93247974514e-108
2.93247975346e-108
2.93248023727e-108
2.93250745611e-108
2.93405446965e-108
2.97033551591e-108
1.65626373602e-42
2.71287236896e-11
1.0328047586e-07
2.05618943904e-07
2.29743024942e-07
2.40208306908e-07
2.50648484621e-07
2.57568869789e-07
2.60042845633e-07
2.60276008865e-07
2.59823521804e-07
2.59295495988e-07
2.58733409068e-07
2.58152808791e-07
2.57557856097e-07
2.5694778978e-07
2.56319579772e-07
2.55669425711e-07
2.54991138619e-07
2.54285433219e-07
2.53551394419e-07
2.5278790998e-07
2.51992209819e-07
2.5116270903e-07
2.50299813444e-07
2.4940130903e-07
2.48469190113e-07
2.47508372088e-07
2.46522577718e-07
2.45512753826e-07
2.4448191579e-07
2.43439607472e-07
2.42393754917e-07
2.41349289899e-07
2.40390329521e-07
2.39373159884e-07
2.38377727916e-07
2.37417334738e-07
2.36502970962e-07
2.35641994214e-07
2.34841567599e-07
2.34108261913e-07
2.33451248718e-07
2.32876702949e-07
2.32391172232e-07
2.31996969269e-07
2.31697060728e-07
2.31493545788e-07
2.31429881664e-07
2.93247974466e-108
2.93247974466e-108
2.93247974466e-108
2.93247974466e-108
2.93247974466e-108
2.93247974466e-108
2.93247974466e-108
2.93247974466e-108
2.93247974467e-108
2.93247974467e-108
2.93247974467e-108
2.93247974467e-108
2.93247974467e-108
2.93247974467e-108
2.93247974468e-108
2.93247974509e-108
2.93247976885e-108
2.93248115122e-108
2.93255829023e-108
2.93693165807e-108
3.01082937643e-108
6.07449607814e-29
5.54200498047e-09
1.45480774004e-07
2.14639740353e-07
2.34534654845e-07
2.46098457781e-07
2.57030218654e-07
2.63228448808e-07
2.64898863791e-07
2.64703181148e-07
2.64006269498e-07
2.63270496384e-07
2.62509226679e-07
2.61733632791e-07
2.60946414726e-07
2.60149183982e-07
2.59339087104e-07
2.58510834251e-07
2.57660301231e-07
2.5678861569e-07
2.55895711884e-07
2.54977451321e-07
2.5402766537e-07
2.53050146398e-07
2.52047655347e-07
2.51018346267e-07
2.49963061909e-07
2.4895801082e-07
2.47852933847e-07
2.46729386999e-07
2.455976904e-07
2.44460162672e-07
2.43318769034e-07
2.42185795201e-07
2.41071329224e-07
2.39980812295e-07
2.38922663542e-07
2.37905712178e-07
2.36935464037e-07
2.36023445448e-07
2.35179828807e-07
2.34410949878e-07
2.33723875494e-07
2.33197991245e-07
2.32690131146e-07
2.3227767208e-07
2.31963354587e-07
2.31748808103e-07
2.31677313736e-07
2.9324797444e-108
2.93247974441e-108
2.93247974441e-108
2.93247974441e-108
2.93247974441e-108
2.93247974441e-108
2.93247974441e-108
2.93247974441e-108
2.93247974441e-108
2.93247974441e-108
2.93247974441e-108
2.93247974442e-108
2.93247974442e-108
2.93247974442e-108
2.93247974444e-108
2.93247974544e-108
2.93247980367e-108
2.93248316344e-108
2.93266894327e-108
2.94305468448e-108
3.08104717923e-108
6.41459339987e-22
2.47297755212e-08
1.74583335688e-07
2.22287621134e-07
2.39911526321e-07
2.53043169723e-07
2.6402217976e-07
2.69250490699e-07
2.701302574e-07
2.69628679394e-07
2.68750755325e-07
2.67797798747e-07
2.66750075939e-07
2.65767208558e-07
2.64781652662e-07
2.63788959186e-07
2.62786952936e-07
2.61847048271e-07
2.6081330039e-07
2.5976256336e-07
2.58696422209e-07
2.57608765093e-07
2.5649578714e-07
2.55362018496e-07
2.54208489208e-07
2.53033202666e-07
2.5183778588e-07
2.50620718623e-07
2.49388493902e-07
2.48148747488e-07
2.46901951349e-07
2.45652818206e-07
2.44413613024e-07
2.43191056642e-07
2.42063789456e-07
2.40892049011e-07
2.39759013657e-07
2.38674192009e-07
2.37641743703e-07
2.36674085157e-07
2.35780802283e-07
2.34967812684e-07
2.34241460792e-07
2.33605293229e-07
2.33067036202e-07
2.32630289252e-07
2.32297452332e-07
2.32070038017e-07
2.3199048086e-07
2.9324797442e-108
2.9324797442e-108
2.93247974421e-108
2.93247974421e-108
2.93247974421e-108
2.93247974421e-108
2.93247974421e-108
2.93247974421e-108
2.93247974421e-108
2.93247974421e-108
2.93247974421e-108
2.93247974421e-108
2.93247974421e-108
2.93247974422e-108
2.93247974425e-108
2.93247974634e-108
2.93247986508e-108
2.93248661014e-108
2.93285671678e-108
2.95271353438e-108
5.64984302051e-44
2.37848535578e-14
5.03869614308e-08
1.90903137095e-07
2.29190295501e-07
2.46397340537e-07
2.60997574379e-07
2.71671204251e-07
2.75726705971e-07
2.75955787202e-07
2.75071566378e-07
2.73913241423e-07
2.72710137254e-07
2.71502722267e-07
2.70296052789e-07
2.6908625644e-07
2.67878082409e-07
2.66667884457e-07
2.65446277229e-07
2.64217596779e-07
2.62980333845e-07
2.61730000809e-07
2.6046452871e-07
2.59178916103e-07
2.57878988218e-07
2.56564908074e-07
2.55230598818e-07
2.5388326276e-07
2.52529170465e-07
2.51239705899e-07
2.49872283673e-07
2.48505187953e-07
2.47142994709e-07
2.45792324449e-07
2.44466074991e-07
2.43168568932e-07
2.41905214695e-07
2.40689446373e-07
2.39530338101e-07
2.3843538791e-07
2.37487397491e-07
2.36539384208e-07
2.3567817674e-07
2.34909665134e-07
2.34239290602e-07
2.33671761974e-07
2.33210829775e-07
2.32859152325e-07
2.32618273806e-07
2.32530345076e-07
2.93247974404e-108
2.93247974404e-108
2.93247974404e-108
2.93247974404e-108
2.93247974404e-108
2.93247974404e-108
2.93247974405e-108
2.93247974405e-108
2.93247974405e-108
2.93247974405e-108
2.93247974405e-108
2.93247974405e-108
2.93247974405e-108
2.93247974405e-108
2.93247974416e-108
2.93247975037e-108
2.93248011004e-108
2.93250034782e-108
2.93364094611e-108
2.96497120158e-108
1.09104791291e-42
6.24494783244e-12
8.63716235819e-08
2.03582236201e-07
2.36141806269e-07
2.5412209043e-07
2.69855815668e-07
2.79718478109e-07
2.82618427593e-07
2.82230553571e-07
2.80961960347e-07
2.79506017282e-07
2.78024124418e-07
2.76554510357e-07
2.75098200084e-07
2.73648094372e-07
2.72209677032e-07
2.70776147066e-07
2.69343666165e-07
2.67903751024e-07
2.66463137945e-07
2.65017336696e-07
2.63559931543e-07
2.62174247681e-07
2.60698220987e-07
2.59214646454e-07
2.5771818012e-07
2.56215183519e-07
2.54710802583e-07
2.53204827112e-07
2.51699560791e-07
2.50199634573e-07
2.48719913466e-07
2.47339899773e-07
2.45904248497e-07
2.44507738893e-07
2.43155991385e-07
2.41857313853e-07
2.40617873124e-07
2.39447140306e-07
2.38356375223e-07
2.37351723721e-07
2.36437703783e-07
2.35622383728e-07
2.34913020726e-07
2.34400630884e-07
2.33912190263e-07
2.33537770687e-07
2.33279673759e-07
2.33179646194e-07
2.93247974391e-108
2.93247974391e-108
2.93247974391e-108
2.93247974391e-108
2.93247974391e-108
2.93247974391e-108
2.93247974391e-108
2.93247974391e-108
2.93247974391e-108
2.93247974391e-108
2.93247974391e-108
2.93247974391e-108
2.93247974391e-108
2.93247974392e-108
2.9324797442e-108
2.93247976039e-108
2.93248069549e-108
2.93253279184e-108
2.93548041038e-108
2.99093442282e-108
3.31159444025e-42
6.07067125296e-10
1.26289130181e-07
2.14582782281e-07
2.43476107986e-07
2.6287441219e-07
2.7940335317e-07
2.88093721831e-07
2.89837237809e-07
2.88839925458e-07
2.87191852015e-07
2.85422853149e-07
2.83657006733e-07
2.81909476584e-07
2.8018955419e-07
2.78489585677e-07
2.76801188275e-07
2.75129947137e-07
2.73543119688e-07
2.7188962544e-07
2.70232777434e-07
2.6858100478e-07
2.66927941943e-07
2.65270140131e-07
2.63614475801e-07
2.61955572718e-07
2.60293325617e-07
2.58709611744e-07
2.57045836737e-07
2.55391733714e-07
2.53749042744e-07
2.52120925493e-07
2.50510370745e-07
2.48931994712e-07
2.47390676157e-07
2.45893557057e-07
2.44523263495e-07
2.43134104392e-07
2.41816427444e-07
2.40575186695e-07
2.39418296831e-07
2.38351061896e-07
2.37382763468e-07
2.36521737659e-07
2.35773159119e-07
2.35139755564e-07
2.34624414585e-07
2.34229257006e-07
2.33955911086e-07
2.33846496271e-07
2.93247974379e-108
2.93247974379e-108
2.93247974379e-108
2.93247974379e-108
2.93247974379e-108
2.9324797438e-108
2.9324797438e-108
2.9324797438e-108
2.9324797438e-108
2.9324797438e-108
2.9324797438e-108
2.9324797438e-108
2.9324797438e-108
2.93247974381e-108
2.93247974462e-108
2.93247979108e-108
2.93248245356e-108
2.9326288866e-108
2.94076853661e-108
3.05673859491e-108
2.63137522903e-22
1.69911186654e-08
1.65468400884e-07
2.24623640636e-07
2.51778359589e-07
2.73066243582e-07
2.89330684483e-07
2.9644504471e-07
2.97177742393e-07
2.95628495897e-07
2.93627568332e-07
2.91555253575e-07
2.89500509108e-07
2.87480217132e-07
2.85558281071e-07
2.83592578275e-07
2.81654019854e-07
2.79735212689e-07
2.77832396641e-07
2.75949058587e-07
2.74072015587e-07
2.72211395101e-07
2.70430974889e-07
2.68582311402e-07
2.66735081405e-07
2.64890813446e-07
2.63057462153e-07
2.61231289874e-07
2.59410514237e-07
2.5760672104e-07
2.55900656876e-07
2.54133411563e-07
2.52400663342e-07
2.50703440373e-07
2.49047113616e-07
2.47440433101e-07
2.45896773634e-07
2.44421669558e-07
2.43102071012e-07
2.41786457182e-07
2.40560280569e-07
2.39430925988e-07
2.38409331904e-07
2.37501216186e-07
2.36710765294e-07
2.36041911052e-07
2.35497825199e-07
2.3508031308e-07
2.34790248457e-07
2.3466952375e-07
2.9324797437e-108
2.9324797437e-108
2.9324797437e-108
2.9324797437e-108
2.9324797437e-108
2.9324797437e-108
2.9324797437e-108
2.9324797437e-108
2.9324797437e-108
2.9324797437e-108
2.9324797437e-108
2.9324797437e-108
2.9324797437e-108
2.93247974374e-108
2.93247974572e-108
2.93247985788e-108
2.93248617807e-108
2.93282798626e-108
2.95118036298e-108
3.16863448072e-108
2.53178079624e-15
4.21537287078e-08
1.87918815004e-07
2.34717208431e-07
2.61705551641e-07
2.84488956285e-07
2.99837421702e-07
3.05050986964e-07
3.04735387707e-07
3.02632538492e-07
3.00264942611e-07
2.97939582203e-07
2.95584367789e-07
2.93264706274e-07
2.90990992984e-07
2.88748999842e-07
2.86549424805e-07
2.84381694262e-07
2.82312968881e-07
2.80188420133e-07
2.78089648267e-07
2.76003570508e-07
2.73939522259e-07
2.71889925929e-07
2.69849980117e-07
2.67904347484e-07
2.65891672433e-07
2.638932418e-07
2.61916816964e-07
2.59960330101e-07
2.58026135332e-07
2.56128887765e-07
2.54347739637e-07
2.52527420021e-07
2.50757589189e-07
2.49049377609e-07
2.47408309133e-07
2.45837955231e-07
2.44353914067e-07
2.43050844723e-07
2.41755685917e-07
2.40564800555e-07
2.39489993123e-07
2.38534556798e-07
2.37702640148e-07
2.36998388935e-07
2.36424845339e-07
2.359835205e-07
2.35674267164e-07
2.35539870218e-07
2.93247974361e-108
2.93247974361e-108
2.93247974361e-108
2.93247974361e-108
2.93247974361e-108
2.93247974362e-108
2.93247974362e-108
2.93247974362e-108
2.93247974362e-108
2.93247974362e-108
2.93247974362e-108
2.93247974362e-108
2.93247974362e-108
2.93247974373e-108
2.93247975013e-108
2.93248011514e-108
2.93250041057e-108
2.93362715602e-108
2.96534044933e-108
1.01650682686e-42
4.3710073692e-12
8.07348277434e-08
2.04620287131e-07
2.45500565311e-07
2.73493369852e-07
2.97050994103e-07
3.10478508763e-07
3.13793629721e-07
3.12425020483e-07
3.09872488806e-07
3.0711169555e-07
3.04377917329e-07
3.01694710431e-07
2.99073751584e-07
2.96502680601e-07
2.94060167376e-07
2.91587517631e-07
2.89154812203e-07
2.86763141714e-07
2.84399648408e-07
2.8207153076e-07
2.79842529993e-07
2.77566990227e-07
2.7530646123e-07
2.73073110294e-07
2.70864083011e-07
2.68751267102e-07
2.66586452383e-07
2.64448547571e-07
2.62334944853e-07
2.60259082571e-07
2.58224377564e-07
2.56233445936e-07
2.54376872115e-07
2.52494211779e-07
2.50681661881e-07
2.48943542559e-07
2.47288412726e-07
2.45722843876e-07
2.44254087542e-07
2.42979802567e-07
2.41732661614e-07
2.40604244768e-07
2.39601319362e-07
2.38725747316e-07
2.37984496407e-07
2.37379859503e-07
2.36914489596e-07
2.36587672207e-07
2.36441000795e-07
2.93247974354e-108
2.93247974354e-108
2.93247974354e-108
2.93247974354e-108
2.93247974354e-108
2.93247974354e-108
2.93247974354e-108
2.93247974354e-108
2.93247974354e-108
2.93247974355e-108
2.93247974355e-108
2.93247974355e-108
2.93247974355e-108
2.9324797439e-108
2.93247976397e-108
2.93248090896e-108
2.93254401092e-108
2.93606817936e-108
2.99950619031e-108
6.14486596069e-30
1.16204765304e-09
1.27386556066e-07
2.19451644903e-07
2.57147144572e-07
2.86818778116e-07
3.10104362767e-07
3.21075418546e-07
3.22361128096e-07
3.20155101148e-07
3.17103354611e-07
3.13954707031e-07
3.10863198015e-07
3.07923988232e-07
3.04981969473e-07
3.02112997815e-07
2.99304971307e-07
2.96556738817e-07
2.9393595595e-07
2.91290708377e-07
2.88682379481e-07
2.8611680177e-07
2.83590381585e-07
2.81179400341e-07
2.78715213465e-07
2.76285578483e-07
2.73887334557e-07
2.71516062557e-07
2.69261820086e-07
2.6696343363e-07
2.64701479547e-07
2.62477422451e-07
2.60307742675e-07
2.58192920152e-07
2.5621702869e-07
2.54227500377e-07
2.52306402265e-07
2.50470957923e-07
2.48728540221e-07
2.47085122478e-07
2.45548214909e-07
2.44205037477e-07
2.42895330021e-07
2.4171346303e-07
2.40664068644e-07
2.39750707172e-07
2.38977393257e-07
2.38345740104e-07
2.3785678487e-07
2.37511665912e-07
2.37351183889e-07
2.93247974348e-108
2.93247974348e-108
2.93247974348e-108
2.93247974348e-108
2.93247974348e-108
2.93247974348e-108
2.93247974348e-108
2.93247974348e-108
2.93247974348e-108
2.93247974348e-108
2.93247974348e-108
2.93247974348e-108
2.93247974351e-108
2.93247974473e-108
2.93247981357e-108
2.93248368269e-108
2.93269251499e-108
2.94398606794e-108
3.09258034635e-108
6.36589479707e-22
2.30034598123e-08
1.7264469336e-07
2.3375865668e-07
2.70571499923e-07
3.0158696581e-07
3.23143322931e-07
3.31063022901e-07
3.30693853234e-07
3.2772383e-07
3.2423210724e-07
3.20723201631e-07
3.17358256061e-07
3.14018134952e-07
3.10760796003e-07
3.07660503534e-07
3.04558840112e-07
3.01533346456e-07
2.98567869031e-07
2.95669968128e-07
2.92896039251e-07
2.9010230079e-07
2.87347134117e-07
2.84644989925e-07
2.82056205266e-07
2.7943219268e-07
2.76849548873e-07
2.74299962257e-07
2.71800896751e-07
2.69422161184e-07
2.67012240119e-07
2.64649067334e-07
2.62342400374e-07
2.60103362146e-07
2.58016772464e-07
2.55916147471e-07
2.53896604943e-07
2.51970908764e-07
2.50144031766e-07
2.4842240955e-07
2.46810274049e-07
2.45407539332e-07
2.44039527808e-07
2.42806546996e-07
2.41712664107e-07
2.40760172841e-07
2.39952674572e-07
2.39292105871e-07
2.38779610485e-07
2.3841623705e-07
2.38241561498e-07
2.93247974342e-108
2.93247974342e-108
2.93247974342e-108
2.93247974342e-108
2.93247974342e-108
2.93247974342e-108
2.93247974342e-108
2.93247974342e-108
2.93247974343e-108
2.93247974343e-108
2.93247974343e-108
2.93247974343e-108
2.9324797435e-108
2.93247974745e-108
2.93247997289e-108
2.93249259104e-108
2.93318458548e-108
2.95920890662e-108
4.12059641351e-43
3.05454165636e-13
5.90186602134e-08
1.98115122754e-07
2.48828947065e-07
2.86339487022e-07
3.17689361165e-07
3.36054842051e-07
3.40731801854e-07
3.3881650666e-07
3.3515988772e-07
3.31299611373e-07
3.27418463008e-07
3.23647294304e-07
3.2004382546e-07
3.1647375551e-07
3.1299824322e-07
3.09611107379e-07
3.06376875067e-07
3.03151980599e-07
2.99993445582e-07
2.96907756376e-07
2.93954142631e-07
2.90983809956e-07
2.88067521412e-07
2.85200452965e-07
2.82463612113e-07
2.79702230425e-07
2.76985602558e-07
2.74317556224e-07
2.71790927661e-07
2.69230793059e-07
2.66732027663e-07
2.64300876451e-07
2.61941952091e-07
2.59734974955e-07
2.57532901149e-07
2.55420216936e-07
2.53406133463e-07
2.5149712953e-07
2.49698246055e-07
2.48108635084e-07
2.46557561657e-07
2.45138423641e-07
2.43856397891e-07
2.42716338307e-07
2.41725096105e-07
2.4088488588e-07
2.40196450991e-07
2.39661182333e-07
2.3927948861e-07
2.39090221483e-07
2.93247974337e-108
2.93247974337e-108
2.93247974337e-108
2.93247974337e-108
2.93247974337e-108
2.93247974337e-108
2.93247974337e-108
2.93247974338e-108
2.93247974338e-108
2.93247974338e-108
2.93247974338e-108
2.93247974338e-108
2.93247974368e-108
2.93247976008e-108
2.93248067573e-108
2.93253009777e-108
2.93521691039e-108
2.9877493854e-108
2.68502669088e-42
1.36923557119e-10
1.12308316711e-07
2.1866773745e-07
2.65296123909e-07
3.04209886606e-07
3.34237502903e-07
3.4834947589e-07
3.49934892298e-07
3.46739865385e-07
3.42466038588e-07
3.38110551289e-07
3.33855209359e-07
3.29793536159e-07
3.25797764063e-07
3.21983093374e-07
3.18210988183e-07
3.14534849558e-07
3.10964217793e-07
3.07547011137e-07
3.04139857223e-07
3.00816238891e-07
2.97640749649e-07
2.94449002162e-07
2.91327336778e-07
2.88268772197e-07
2.85346962696e-07
2.82402349952e-07
2.79519530449e-07
2.76699871661e-07
2.74015369824e-07
2.71320814618e-07
2.68693602296e-07
2.66139521074e-07
2.63749157493e-07
2.61354798264e-07
2.59049150549e-07
2.5684635901e-07
2.54749024056e-07
2.52765373363e-07
2.50987444876e-07
2.49239886936e-07
2.47628292305e-07
2.46156597477e-07
2.44831191702e-07
2.43654139609e-07
2.42629151459e-07
2.41759115488e-07
2.41133274697e-07
2.40575786864e-07
2.40175111876e-07
2.39970280446e-07
2.93247974333e-108
2.93247974333e-108
2.93247974333e-108
2.93247974333e-108
2.93247974333e-108
2.93247974333e-108
2.93247974333e-108
2.93247974333e-108
2.93247974333e-108
2.93247974333e-108
2.93247974333e-108
2.93247974336e-108
2.93247974462e-108
2.93247981517e-108
2.93248372432e-108
2.9326921224e-108
2.94378947747e-108
3.09123997457e-108
5.44124418305e-22
2.04652880615e-08
1.68593838051e-07
2.38107884449e-07
2.83829581144e-07
3.23429961407e-07
3.50110206761e-07
3.59409784103e-07
3.58349755569e-07
3.54135894838e-07
3.49355574274e-07
3.44669815397e-07
3.40059534189e-07
3.35658625069e-07
3.31332147913e-07
3.27142291467e-07
3.23145386887e-07
3.19194970974e-07
3.15358224411e-07
3.1169017927e-07
3.08047436016e-07
3.04488058237e-07
3.01093299938e-07
2.9770009119e-07
2.94372914395e-07
2.911278071e-07
2.8802456523e-07
2.84914939343e-07
2.8187453324e-07
2.78983474228e-07
2.76075523845e-07
2.73246186125e-07
2.70495261035e-07
2.6782483066e-07
2.65324727666e-07
2.62833738397e-07
2.60439712274e-07
2.58148469127e-07
2.5606291644e-07
2.54003912655e-07
2.52070778558e-07
2.50269732633e-07
2.48606438432e-07
2.47087516455e-07
2.45720046135e-07
2.44600703052e-07
2.43538818727e-07
2.42634758375e-07
2.41892461951e-07
2.41311998449e-07
2.40893110765e-07
2.40670896472e-07
2.93247974329e-108
2.93247974329e-108
2.93247974329e-108
2.93247974329e-108
2.93247974329e-108
2.93247974329e-108
2.93247974329e-108
2.93247974329e-108
2.93247974329e-108
2.93247974329e-108
2.93247974329e-108
2.93247974339e-108
2.93247974895e-108
2.93248005906e-108
2.93249697884e-108
2.93340752351e-108
2.96313657307e-108
6.31315793945e-43
8.05923339199e-13
6.27096612807e-08
2.01818508693e-07
2.58697852957e-07
3.05290099558e-07
3.43658842936e-07
3.64773749681e-07
3.69237243154e-07
3.66076439105e-07
3.61059488736e-07
3.55883429271e-07
3.50761806327e-07
3.45866539597e-07
3.41080607051e-07
3.36508495016e-07
3.32024363453e-07
3.27673245352e-07
3.23520301639e-07
3.19428783007e-07
3.1551584013e-07
3.11642706099e-07
3.07866052582e-07
3.04262401571e-07
3.00668385354e-07
2.97162327855e-07
2.93811314141e-07
2.90465099945e-07
2.87194787037e-07
2.84000029128e-07
2.80970170953e-07
2.7793114367e-07
2.74973755225e-07
2.72107823872e-07
2.69416088992e-07
2.66732422751e-07
2.64142504712e-07
2.61664600435e-07
2.59392915041e-07
2.57138604433e-07
2.55015138779e-07
2.53023750655e-07
2.51170219379e-07
2.49461516239e-07
2.47992872595e-07
2.46584449711e-07
2.45332918369e-07
2.44242416073e-07
2.43314303202e-07
2.4254991929e-07
2.41949709444e-07
2.41512678121e-07
2.41272271196e-07
2.93247974325e-108
2.93247974325e-108
2.93247974325e-108
2.93247974325e-108
2.93247974325e-108
2.93247974325e-108
2.93247974325e-108
2.93247974325e-108
2.93247974325e-108
2.93247974326e-108
2.93247974326e-108
2.93247974378e-108
2.9324797722e-108
2.93248134438e-108
2.93256541811e-108
2.93708369853e-108
3.01375468551e-108
3.64345891516e-29
1.97790453597e-09
1.26282433281e-07
2.27752845499e-07
2.81467338762e-07
3.28764115671e-07
3.6338971653e-07
3.77690974586e-07
3.77896003146e-07
3.73183718911e-07
3.67519460003e-07
3.61925092993e-07
3.56444501219e-07
3.51220475798e-07
3.46111663765e-07
3.41248817198e-07
3.36477459694e-07
3.31860917296e-07
3.27454339993e-07
3.23120931662e-07
3.18981284412e-07
3.14883861787e-07
3.1090338196e-07
3.07096185619e-07
3.03319548085e-07
2.99631397055e-07
2.96117744917e-07
2.92614412883e-07
2.89198394406e-07
2.85946965044e-07
2.82701478181e-07
2.79543095226e-07
2.76477406527e-07
2.73588663475e-07
2.70709734655e-07
2.67929764319e-07
2.65263038993e-07
2.62798610983e-07
2.60360786129e-07
2.58047551108e-07
2.5586633157e-07
2.53823669069e-07
2.52016405298e-07
2.50263905783e-07
2.48662258625e-07
2.47218603868e-07
2.45935866156e-07
2.44817425449e-07
2.43866444504e-07
2.43179875195e-07
2.42559951122e-07
2.42104407065e-07
2.41845555401e-07
2.93247974322e-108
2.93247974322e-108
2.93247974322e-108
2.93247974322e-108
2.93247974322e-108
2.93247974322e-108
2.93247974322e-108
2.93247974322e-108
2.93247974322e-108
2.93247974322e-108
2.93247974327e-108
2.93247974594e-108
2.93247989003e-108
2.93248762428e-108
2.9328873231e-108
2.95312600729e-108
3.18936009584e-108
3.49658499041e-16
3.5932293649e-08
1.85485690801e-07
2.53210075775e-07
3.06966412951e-07
3.53129246229e-07
3.80827286599e-07
3.88247127197e-07
3.85237416486e-07
3.79432352199e-07
3.73329949357e-07
3.67302914155e-07
3.61546439929e-07
3.55948056822e-07
3.50612544648e-07
3.45470893566e-07
3.4043485414e-07
3.35574073503e-07
3.30929012096e-07
3.26371355514e-07
3.22016835527e-07
3.17723838099e-07
3.13623193937e-07
3.09562241198e-07
3.05611790049e-07
3.01842134828e-07
2.98088444146e-07
2.94440203584e-07
2.90971942741e-07
2.87513847923e-07
2.84150002587e-07
2.80967619142e-07
2.77797383558e-07
2.74726938491e-07
2.71762496061e-07
2.68995680307e-07
2.66250164561e-07
2.63625196406e-07
2.61127269378e-07
2.58858052052e-07
2.56625364307e-07
2.54533889613e-07
2.5259066495e-07
2.50799771664e-07
2.49167043644e-07