/*--------------------------------*- C++ -*----------------------------------*\
| =========                 |                                                 |
| \\      /  F ield         | foam-extend: Open Source CFD                    |
|  \\    /   O peration     | Version:     4.1                                |
|   \\  /    A nd           | Web:         http://www.foam-extend.org         |
|    \\/     M anipulation  |                                                 |
\*---------------------------------------------------------------------------*/
FoamFile
{
    version     2.0;
    format      ascii;
    class       volScalarField;
    location    "0.0007";
    object      OPlus;
}
// * * * * * * * * * * * * * * * * * * * * * * * * * * * * * * * * * * * * * //

dimensions      [0 0 0 0 0 0 0];

internalField   nonuniform List<scalar> 
8400
(
6.45488964728e-195
6.45488964732e-195
6.45488964736e-195
6.45488964739e-195
6.45488964743e-195
6.45488964746e-195
6.4548896475e-195
6.45488964753e-195
6.45488964756e-195
6.4548896476e-195
6.45488964763e-195
6.45488964766e-195
6.45488964769e-195
6.45488964772e-195
6.45488964775e-195
6.45488964778e-195
6.45488964781e-195
6.45488964815e-195
6.45488966601e-195
6.45489069834e-195
6.45494846036e-195
6.45821291424e-195
6.5384369887e-195
5.66120313693e-73
1.54611137513e-14
8.54568538703e-05
0.0359604186905
0.0854505742099
0.117435644281
0.133063904734
0.139570717826
0.141913214224
0.142681179126
0.142985768024
0.143168770903
0.1433168137
0.143452126971
0.143581587712
0.143708157155
0.14383366794
0.143959860923
0.144088301217
0.144220608387
0.144335275328
0.144477466247
0.144625803439
0.144781669825
0.144945532752
0.145117894813
0.145298648715
0.145488041018
0.14568590673
0.145892604507
0.146107058044
0.146327921624
0.14655319773
0.146780875504
0.14700946124
0.147237031967
0.147439668467
0.147656422631
0.147862130502
0.14805412204
0.148229696147
0.148386269687
0.148521697174
0.148633967577
0.148720696476
0.14878066989
0.148892298895
6.45488963661e-195
6.45488963663e-195
6.45488963664e-195
6.45488963666e-195
6.45488963667e-195
6.45488963669e-195
6.4548896367e-195
6.45488963671e-195
6.45488963673e-195
6.45488963674e-195
6.45488963675e-195
6.45488963677e-195
6.45488963678e-195
6.45488963679e-195
6.4548896368e-195
6.45488963682e-195
6.45488963686e-195
6.45488963845e-195
6.4548897307e-195
6.45489508262e-195
6.45519216194e-195
6.4719717167e-195
6.71765204234e-195
5.87503977747e-35
5.57121973386e-07
0.00576773971818
0.0575768748595
0.10168184578
0.126630429464
0.137810147272
0.142095723562
0.14347623968
0.143911080584
0.144092941594
0.144225377296
0.144349905025
0.144475589077
0.144604365402
0.144736789335
0.144873270433
0.145014205743
0.145181286108
0.1453326881
0.145490573974
0.145654993024
0.145826641939
0.146006086654
0.146193949454
0.146389694214
0.146592883299
0.146803360575
0.147021166151
0.147246696718
0.147478251463
0.147713498746
0.147950499074
0.148187901205
0.148425327584
0.14863632508
0.148863902944
0.1490816618
0.149286662126
0.149476316591
0.149648929932
0.149802369189
0.149934648218
0.150043024519
0.150125893281
0.150182592929
0.150273866672
6.45488963163e-195
6.45488963164e-195
6.45488963164e-195
6.45488963165e-195
6.45488963166e-195
6.45488963167e-195
6.45488963168e-195
6.45488963169e-195
6.4548896317e-195
6.4548896317e-195
6.45488963171e-195
6.45488963172e-195
6.45488963173e-195
6.45488963173e-195
6.45488963174e-195
6.45488963175e-195
6.45488963188e-195
6.45488963919e-195
6.45489006845e-195
6.45491484825e-195
6.45632101051e-195
6.51138015635e-195
1.55163311262e-73
2.93839496818e-17
2.61604435809e-05
0.0268498316498
0.0787342502105
0.114972663376
0.133166666749
0.140726406983
0.143361405801
0.144154370175
0.144414589751
0.144538226126
0.14464153565
0.144744407122
0.144850594425
0.144983023704
0.145100099952
0.14522371978
0.145353833873
0.14549065616
0.145634696423
0.145786516867
0.145946560806
0.146115811339
0.146293950287
0.146480781836
0.146675550469
0.146878312249
0.147089204244
0.147308216962
0.147533802181
0.14776354963
0.147995992872
0.148230141454
0.148464483898
0.148696730128
0.14892395275
0.149143725897
0.149352888571
0.149548600917
0.149729301702
0.149894248632
0.150041253834
0.150167346589
0.150269518203
0.150346433404
0.15039870692
0.150476600578
6.45488962866e-195
6.45488962866e-195
6.45488962867e-195
6.45488962868e-195
6.45488962868e-195
6.45488962869e-195
6.4548896287e-195
6.4548896287e-195
6.45488962871e-195
6.45488962871e-195
6.45488962872e-195
6.45488962873e-195
6.45488962873e-195
6.45488962874e-195
6.45488962874e-195
6.45488962876e-195
6.45488962938e-195
6.45488966569e-195
6.45489179332e-195
6.45501185525e-195
6.46192666845e-195
6.59189118869e-195
1.31323649112e-72
1.86526865772e-10
0.000398140135785
0.0468343809749
0.0945788557055
0.123387726242
0.136701045088
0.141955879366
0.143638857268
0.144158661862
0.144340495272
0.144460615051
0.144570074443
0.144679734568
0.144792327206
0.144908556423
0.145051191873
0.145178275094
0.145312141621
0.145452883642
0.145600869197
0.145756816676
0.145921148515
0.146094807206
0.146277524782
0.146469028594
0.146668405625
0.146875602885
0.147090503218
0.147313118711
0.147541509065
0.147773266736
0.148006866366
0.148241392648
0.148475470872
0.148706303534
0.148931099827
0.149125725722
0.149331548922
0.149523575174
0.149700804921
0.14986128086
0.150002967288
0.150123425746
0.150221320703
0.150295941069
0.150347030723
0.150417876148
6.4548896267e-195
6.4548896267e-195
6.45488962671e-195
6.45488962671e-195
6.45488962672e-195
6.45488962672e-195
6.45488962673e-195
6.45488962673e-195
6.45488962674e-195
6.45488962674e-195
6.45488962674e-195
6.45488962675e-195
6.45488962675e-195
6.45488962676e-195
6.45488962676e-195
6.45488962681e-195
6.45488962916e-195
6.45488976581e-195
6.45489768719e-195
6.45533727782e-195
6.48005192247e-195
6.80748123421e-195
2.69921027567e-31
2.14185632685e-06
0.0109507088698
0.063339782818
0.105495151118
0.128370702623
0.138409203233
0.142158164244
0.143331377467
0.143702622151
0.143876257087
0.14401279739
0.144143112823
0.144273672585
0.144406355756
0.144542301493
0.144682240879
0.144827059411
0.144977388332
0.145155428258
0.145319268892
0.145490966861
0.1456704033
0.145858056674
0.14605436536
0.146259243615
0.146471851905
0.146691399715
0.146918091554
0.147129948344
0.147368228184
0.147608950653
0.147849950932
0.148090466701
0.148329019471
0.148563229118
0.148790605572
0.149009101378
0.14921591023
0.149408830394
0.149586136296
0.149745963428
0.149886391254
0.150005883651
0.150102869315
0.150176648238
0.150226947325
0.150293838002
6.45488962532e-195
6.45488962532e-195
6.45488962532e-195
6.45488962533e-195
6.45488962533e-195
6.45488962534e-195
6.45488962534e-195
6.45488962534e-195
6.45488962535e-195
6.45488962535e-195
6.45488962535e-195
6.45488962536e-195
6.45488962536e-195
6.45488962537e-195
6.45488962537e-195
6.45488962548e-195
6.45488963156e-195
6.45488999116e-195
6.45491095369e-195
6.45610087249e-195
6.50817439162e-195
1.0274785847e-73
6.84260987029e-18
2.09585333943e-05
0.0249228744755
0.0764601383204
0.112819715919
0.131228221172
0.138950004022
0.141707465632
0.142570052149
0.142902139062
0.143095473379
0.143264776679
0.143429531529
0.143593737179
0.143758629084
0.143924889171
0.144093467611
0.144265735111
0.144442616947
0.144625071577
0.144813607064
0.145009244549
0.145212452804
0.145423105517
0.145640711014
0.145865381677
0.146097149216
0.146335828109
0.146580190918
0.146828810426
0.14708064427
0.147335185585
0.147590094921
0.14784278793
0.148091602499
0.148334533302
0.148569044182
0.148792994123
0.149005407275
0.149203526439
0.149385041968
0.149548352193
0.149670553102
0.149792270354
0.149890454045
0.149965029361
0.150015902298
0.150103159456
6.4548896243e-195
6.45488962431e-195
6.45488962431e-195
6.45488962431e-195
6.45488962432e-195
6.45488962432e-195
6.45488962432e-195
6.45488962432e-195
6.45488962433e-195
6.45488962433e-195
6.45488962433e-195
6.45488962434e-195
6.45488962434e-195
6.45488962434e-195
6.45488962435e-195
6.4548896247e-195
6.45488964458e-195
6.45489080179e-195
6.4549559055e-195
6.45865614768e-195
6.54543538664e-195
6.57155655891e-73
4.55606686843e-14
0.000107504573341
0.0379469863318
0.0867589382633
0.117830460671
0.132685029847
0.138765827817
0.140833913766
0.141513097474
0.141842695984
0.14207141693
0.142282083779
0.142488495622
0.142692753316
0.142895582302
0.143098279538
0.143302429408
0.143510252873
0.143721495628
0.143936580409
0.144155994767
0.144380968086
0.144612376729
0.144850082259
0.145094781077
0.1453460225
0.145602667683
0.145864005313
0.146130077764
0.146400234534
0.146672191617
0.146944076284
0.14721553689
0.147462966464
0.147726872706
0.147983456914
0.148230376151
0.148465081517
0.148685943781
0.148891409536
0.149079985701
0.149249051403
0.149397045367
0.149522039783
0.149623408069
0.149700319195
0.149752460001
0.149815825503
6.45488962353e-195
6.45488962353e-195
6.45488962354e-195
6.45488962354e-195
6.45488962354e-195
6.45488962354e-195
6.45488962355e-195
6.45488962355e-195
6.45488962355e-195
6.45488962356e-195
6.45488962356e-195
6.45488962356e-195
6.45488962356e-195
6.45488962357e-195
6.45488962359e-195
6.45488962456e-195
6.4548896814e-195
6.45489298784e-195
6.45507749367e-195
6.46553798397e-195
6.642291094e-195
7.70826365143e-47
3.23092129288e-08
0.00130940528273
0.049869356504
0.0948296619396
0.121194353135
0.133298776302
0.13804751524
0.139656763603
0.140245302175
0.14058707937
0.140853886066
0.141107586713
0.141357550408
0.141605265428
0.141850566479
0.142094673621
0.142339692862
0.142587147531
0.142836587793
0.143087623672
0.14334238665
0.14360330459
0.143869026219
0.144138580027
0.144413160599
0.144693553393
0.144957439735
0.145247481343
0.145540244888
0.145833975252
0.146128576072
0.146423463085
0.146715426738
0.147002005238
0.147282031045
0.147553895643
0.147815282847
0.148064384978
0.148297973788
0.148513285114
0.148709234473
0.14888524551
0.14901854896
0.149149900883
0.149256263519
0.149336847452
0.149391085757
0.149453756438
6.45488962293e-195
6.45488962293e-195
6.45488962293e-195
6.45488962294e-195
6.45488962294e-195
6.45488962294e-195
6.45488962294e-195
6.45488962295e-195
6.45488962295e-195
6.45488962295e-195
6.45488962295e-195
6.45488962296e-195
6.45488962296e-195
6.45488962296e-195
6.454889623e-195
6.45488962541e-195
6.45488976469e-195
6.45489780079e-195
6.45534216043e-195
6.48018341532e-195
6.81024235556e-195
2.45074950941e-31
1.95410077201e-06
0.00988736216649
0.060532306245
0.101178162479
0.123348427223
0.133217394479
0.136965451329
0.138272101044
0.138794799496
0.139145491435
0.139455357449
0.139775702459
0.140070501647
0.1403623161
0.140651805108
0.140939758774
0.141206318273
0.141496372865
0.141786960146
0.142078111606
0.142372500436
0.14267152176
0.142973339805
0.143277945725
0.143587038879
0.143900125671
0.144217086754
0.144536492667
0.144856484337
0.145177656833
0.145499276011
0.145817800458
0.14613207271
0.146419408839
0.146719721293
0.147009396179
0.147286952754
0.147551439278
0.147799135666
0.148027161522
0.148234197733
0.148418936491
0.148580973023
0.14871825045
0.148829758347
0.148914593739
0.14897219986
0.149036004023
6.45488962245e-195
6.45488962245e-195
6.45488962245e-195
6.45488962246e-195
6.45488962246e-195
6.45488962246e-195
6.45488962246e-195
6.45488962246e-195
6.45488962247e-195
6.45488962247e-195
6.45488962247e-195
6.45488962247e-195
6.45488962247e-195
6.45488962248e-195
6.45488962257e-195
6.45488962756e-195
6.45488991158e-195
6.45490604482e-195
6.45579128866e-195
6.50328604686e-195
2.31079383364e-74
4.06644806432e-19
1.26767602874e-05
0.0202758834283
0.0701265131954
0.106034345728
0.124568134248
0.13256286839
0.135567308593
0.136649088292
0.137164345557
0.137557540139
0.137919733127
0.138271061656
0.138616531878
0.138958639488
0.139296430007
0.139631253066
0.139965583547
0.140298909424
0.140631882118
0.140965504253
0.141300865558
0.141640048117
0.141980790725
0.142323314977
0.142669760093
0.143018383003
0.143368646794
0.143699252609
0.144050984491
0.144401313763
0.144749930123
0.145095129813
0.145434072
0.145765282342
0.146087272099
0.146397189076
0.146692907869
0.146973348079
0.147213974049
0.147456588152
0.147675793349
0.147871156431
0.148041315637
0.148185093839
0.148301598599
0.148390272881
0.148450821917
0.148515696799
6.45488962206e-195
6.45488962206e-195
6.45488962206e-195
6.45488962206e-195
6.45488962207e-195
6.45488962207e-195
6.45488962207e-195
6.45488962207e-195
6.45488962207e-195
6.45488962207e-195
6.45488962208e-195
6.45488962208e-195
6.45488962208e-195
6.45488962209e-195
6.45488962234e-195
6.4548896372e-195
6.45489049749e-195
6.45493890343e-195
6.45766705662e-195
6.53260468955e-195
4.37003033369e-73
3.07341039628e-15
5.7068244728e-05
0.0312002968349
0.0785330716496
0.109685690144
0.125042352376
0.13149458709
0.133905827316
0.134841828537
0.13537596022
0.135820836651
0.136242139507
0.136651022294
0.137051672287
0.137447130621
0.137836327399
0.138221244773
0.13860305034
0.138984530706
0.139363992638
0.139742823423
0.140123503287
0.140481677983
0.140863922578
0.141246007054
0.141630856949
0.142016617108
0.142401946311
0.142787037634
0.143171507518
0.143554241101
0.143932052307
0.14428213041
0.144648956438
0.145003858078
0.145347720618
0.145678790528
0.145994813847
0.146293120192
0.146570439766
0.146825382359
0.147057446054
0.147264754628
0.147446140326
0.147574091903
0.147698303117
0.14779195602
0.147855408524
0.147919920897
6.45488962173e-195
6.45488962174e-195
6.45488962174e-195
6.45488962174e-195
6.45488962174e-195
6.45488962174e-195
6.45488962174e-195
6.45488962175e-195
6.45488962175e-195
6.45488962175e-195
6.45488962175e-195
6.45488962175e-195
6.45488962175e-195
6.45488962177e-195
6.45488962244e-195
6.45488966117e-195
6.4548918978e-195
6.45501650504e-195
6.46206680046e-195
6.59470511974e-195
1.27389180244e-72
7.0284654626e-11
0.000286219342984
0.0420812763844
0.0859013680888
0.112425048377
0.124919035572
0.130071413987
0.132025674638
0.132881701041
0.133451202198
0.133955816818
0.134437501803
0.134907776435
0.135366695551
0.135817515721
0.136262675578
0.13670179257
0.137114988468
0.137545237852
0.137974278552
0.138400088892
0.13882495786
0.13925000379
0.139673565983
0.140096757097
0.140521136323
0.140922764104
0.141346500494
0.141767246382
0.142185037148
0.142598797251
0.143008367822
0.143409802067
0.143801825992
0.144183166848
0.144529393096
0.144883456909
0.145218881831
0.145534908841
0.145829057776
0.146099966016
0.146345516324
0.146563859204
0.14675364179
0.146913806291
0.147043283245
0.14714149609
0.147208357594
0.147273930391
6.45488962146e-195
6.45488962146e-195
6.45488962147e-195
6.45488962147e-195
6.45488962147e-195
6.45488962147e-195
6.45488962147e-195
6.45488962147e-195
6.45488962148e-195
6.45488962148e-195
6.45488962148e-195
6.45488962148e-195
6.45488962148e-195
6.45488962152e-195
6.45488962345e-195
6.45488973456e-195
6.45489610286e-195
6.45524635041e-195
6.47471526616e-195
6.75209958774e-195
1.03229884568e-34
7.06795624226e-07
0.00507682010815
0.0527875075852
0.0921128065967
0.114192071936
0.12432198224
0.128412113686
0.129991998088
0.13080684681
0.131417339837
0.131980681798
0.132524733774
0.133055144678
0.133555634686
0.134066990718
0.134568054774
0.135062302853
0.135551068808
0.136033174586
0.136512153893
0.136986830988
0.137438126289
0.137908097595
0.138376316345
0.138843765816
0.139308170447
0.139770608046
0.140231829335
0.140689450788
0.141119206827
0.141567476786
0.142007147637
0.14243750472
0.14285811932
0.14326665333
0.143658992692
0.144034558632
0.144367904834
0.144703681206
0.145015769587
0.145302901997
0.145562045294
0.145791801463
0.145991392766
0.146159699124
0.146295964392
0.146399513228
0.146469961455
0.146536125526
6.45488962123e-195
6.45488962123e-195
6.45488962123e-195
6.45488962124e-195
6.45488962124e-195
6.45488962124e-195
6.45488962124e-195
6.45488962124e-195
6.45488962124e-195
6.45488962125e-195
6.45488962125e-195
6.45488962125e-195
6.45488962125e-195
6.45488962134e-195
6.45488962608e-195
6.45488989434e-195
6.45490501137e-195
6.45572256922e-195
6.49961891316e-195
7.01973905287e-195
1.43682403622e-20
7.8312575933e-06
0.0156682187835
0.0627028438306
0.0970551874215
0.115145403809
0.123203071422
0.126463251611
0.127799067316
0.128615101486
0.129280114726
0.129889041008
0.130497735882
0.131093549444
0.131675163289
0.132246437386
0.132805681969
0.133356533412
0.133879255766
0.134417555325
0.134947370457
0.135474082258
0.135994761048
0.136510550632
0.137025265854
0.137513297505
0.138021079926
0.138524772785
0.139023173819
0.139516951429
0.140005467503
0.140485763457
0.140934915167
0.141397459134
0.141846387373
0.142279703126
0.142696257519
0.143095555601
0.143474152859
0.143803444035
0.144134105219
0.144436959108
0.144709687738
0.144951700364
0.145161975604
0.145339301911
0.145482714006
0.145591619569
0.14566596408
0.145733114262
6.45488962103e-195
6.45488962103e-195
6.45488962104e-195
6.45488962104e-195
6.45488962104e-195
6.45488962104e-195
6.45488962104e-195
6.45488962104e-195
6.45488962104e-195
6.45488962105e-195
6.45488962105e-195
6.45488962105e-195
6.45488962105e-195
6.45488962132e-195
6.45488963661e-195
6.45489050968e-195
6.45493905354e-195
6.45763407263e-195
6.53348787904e-195
4.07113581252e-73
1.59881096606e-15
4.54090932693e-05
0.0273003373933
0.0715370172693
0.100738662924
0.115312194797
0.121692868614
0.124272387844
0.125478531763
0.126300472045
0.127032788554
0.127730280165
0.128408698355
0.129069062486
0.129716001468
0.130327165859
0.13094839161
0.131558285882
0.132156695115
0.132748040546
0.133331991864
0.133887548995
0.134458174698
0.135024777281
0.135583827388
0.136139029822
0.136667072436
0.137211851335
0.137749498408
0.138281777625
0.138805145385
0.139318888313
0.139823727254
0.140291854391
0.140770100954
0.141230048373
0.141671425702
0.142092318317
0.142491105373
0.142866588462
0.14318822098
0.143505778336
0.143792135772
0.144046459047
0.144268085311
0.144454852058
0.1446056414
0.144719622339
0.144797121541
0.144864490253
6.45488962086e-195
6.45488962086e-195
6.45488962086e-195
6.45488962086e-195
6.45488962087e-195
6.45488962087e-195
6.45488962087e-195
6.45488962087e-195
6.45488962087e-195
6.45488962087e-195
6.45488962087e-195
6.45488962088e-195
6.45488962089e-195
6.45488962173e-195
6.45488966973e-195
6.45489240839e-195
6.45504333954e-195
6.46347266246e-195
6.61520760066e-195
7.91652442171e-48
3.84772882143e-10
0.000279803522315
0.0393373523088
0.0793701725523
0.103389539455
0.114879818199
0.119827581322
0.121941295458
0.123051377249
0.123920837009
0.124724754879
0.12549776025
0.126226304882
0.126956615904
0.127667907755
0.128364158038
0.129046409295
0.1296930994
0.130350327764
0.130997508372
0.131634609621
0.132263531068
0.132861026133
0.133476248701
0.134082265433
0.134680981147
0.135276324433
0.135838965394
0.136417504936
0.136986442514
0.137547413615
0.138095270122
0.138630957714
0.139129281119
0.139634963784
0.140122737899
0.140588867262
0.141032456045
0.141451969117
0.14184516408
0.142184762457
0.142518483332
0.142818406671
0.143084570369
0.143315961971
0.143510914586
0.143668336971
0.143787654127
0.14386884973
0.143936726775
6.45488962071e-195
6.45488962071e-195
6.45488962071e-195
6.45488962071e-195
6.45488962071e-195
6.45488962072e-195
6.45488962072e-195
6.45488962072e-195
6.45488962072e-195
6.45488962072e-195
6.45488962072e-195
6.45488962072e-195
6.45488962078e-195
6.4548896237e-195
6.45488978836e-195
6.45489904277e-195
6.4553985407e-195
6.48241115559e-195
6.83782809434e-195
2.42420818636e-31
1.57476979417e-06
0.0065758651863
0.0509238956995
0.0857229722833
0.105009493165
0.113932013117
0.117760496988
0.119488205009
0.120567527652
0.121489698743
0.122362563703
0.123186793114
0.124006445541
0.12480616854
0.125563932852
0.126326472381
0.127069059935
0.127798727736
0.128513108992
0.129194113652
0.129884349862
0.130566413195
0.131236451067
0.131876991267
0.132530236948
0.133173842925
0.133811188355
0.134438117995
0.135032564046
0.135639807778
0.136235798889
0.136818500472
0.137386965704
0.137914272846
0.13844917747
0.138962575797
0.139452546594
0.139918299999
0.140358161042
0.140771220321
0.141126207279
0.141475856118
0.141789725093
0.142067924316
0.142308993086
0.142511825352
0.142675601023
0.142800173086
0.142885210676
0.142954049405
6.45488962058e-195
6.45488962058e-195
6.45488962058e-195
6.45488962058e-195
6.45488962058e-195
6.45488962058e-195
6.45488962058e-195
6.45488962059e-195
6.45488962059e-195
6.45488962059e-195
6.45488962059e-195
6.45488962059e-195
6.45488962076e-195
6.45488963022e-195
6.45489016944e-195
6.4549203503e-195
6.45657550519e-195
6.51882207788e-195
1.66853097591e-73
2.05395616526e-17
1.8653478489e-05
0.0190226957087
0.0614368991132
0.0904999809378
0.105600921022
0.112449920538
0.115429215504
0.116936512775
0.118029370613
0.118997513289
0.119943434534
0.120858097269
0.121728813031
0.122595539491
0.123440393815
0.124265763052
0.125051580943
0.125839687282
0.126613321486
0.127371570943
0.128094926817
0.128827642429
0.129548012931
0.130258971189
0.130935848622
0.131623967777
0.132302827222
0.1329719676
0.133603076059
0.134248199704
0.134878992265
0.135494449309
0.136093852225
0.136652681392
0.137214005928
0.137752928427
0.138267917108
0.138756135593
0.1392180793
0.139621660495
0.140018780022
0.140381606329
0.140708950988
0.140999535824
0.141251018245
0.141462220198
0.141632784544
0.141762425556
0.141851307033
0.141921043241
6.45488962046e-195
6.45488962046e-195
6.45488962046e-195
6.45488962046e-195
6.45488962046e-195
6.45488962046e-195
6.45488962047e-195
6.45488962047e-195
6.45488962047e-195
6.45488962047e-195
6.45488962047e-195
6.45488962048e-195
6.45488962119e-195
6.45488966043e-195
6.45489185054e-195
6.4550100612e-195
6.46143654496e-195
6.58708695124e-195
1.03781750425e-72
1.43928221519e-12
0.000135632910264
0.0323844180038
0.0705273308991
0.0938199167633
0.10534595509
0.110534656974
0.112905224449
0.114294311043
0.115432263449
0.116492416676
0.117514627881
0.118484217237
0.119444855769
0.120359014036
0.121269229883
0.122157557784
0.123023970278
0.123850917875
0.124681734498
0.125495153732
0.126270329268
0.127056278894
0.1278256462
0.12858334006
0.129305778724
0.130039585177
0.130759626002
0.131467047126
0.132138424407
0.132818993404
0.133482896129
0.134131369059
0.134736084521
0.135346973499
0.135936144954
0.136500140166
0.137037995973
0.137548442057
0.138001812048
0.138450971321
0.138863726494
0.13924070078
0.139580594207
0.139882014432
0.140142845361
0.140362748576
0.140513089607
0.140648452634
0.140741120742
0.140811695455
6.45488962035e-195
6.45488962035e-195
6.45488962035e-195
6.45488962036e-195
6.45488962036e-195
6.45488962036e-195
6.45488962036e-195
6.45488962036e-195
6.45488962036e-195
6.45488962036e-195
6.45488962036e-195
6.45488962042e-195
6.45488962346e-195
6.4548897922e-195
6.45489914234e-195
6.45539760169e-195
6.4819409384e-195
6.83462211066e-195
1.42789134727e-31
1.13891718239e-06
0.00437361818716
0.0454140461575
0.0778030875345
0.0958627579976
0.104445421483
0.108344112671
0.110303058614
0.111649970497
0.112842302335
0.113956395305
0.115051423703
0.116094611183
0.117125994745
0.118128252338
0.119082998685
0.120034030092
0.120959756318
0.121844553108
0.122729553191
0.123598240463
0.124425773547
0.125259237243
0.126079018701
0.126882720158
0.127650133937
0.128426100233
0.129187199028
0.129909641475
0.130643102114
0.131358241861
0.132055502507
0.132735217289
0.133369144157
0.134006902978
0.134620363616
0.135210345844
0.135743057857
0.136275028626
0.136773239044
0.137236990299
0.137664858964
0.138055629172
0.138408069486
0.138690959942
0.138962463952
0.139190231675
0.139374073144
0.139513974217
0.13961024221
0.139681251852
6.45488962026e-195
6.45488962026e-195
6.45488962026e-195
6.45488962026e-195
6.45488962026e-195
6.45488962026e-195
6.45488962026e-195
6.45488962026e-195
6.45488962027e-195
6.45488962027e-195
6.45488962027e-195
6.45488962051e-195
6.45488963381e-195
6.45489037555e-195
6.45493084531e-195
6.45710874209e-195
6.52821651218e-195
2.54075768737e-73
9.73365191316e-17
2.14791326682e-05
0.0181448527021
0.0569374670409
0.0829893968491
0.0965991691304
0.102957475397
0.105932434284
0.107649778294
0.109006905616
0.110243365217
0.111450045738
0.112598139676
0.11372839069
0.114807977649
0.115873788474
0.116914061545
0.117904405222
0.118889879677
0.119831572809
0.120770970372
0.121691628979
0.122568490902
0.123451657339
0.12431614563
0.125142298995
0.125975021129
0.126791705499
0.127593642691
0.128351725346
0.1291203752
0.12987068185
0.130601124763
0.131284567342
0.131972366825
0.132637352039
0.133276099299
0.133857183171
0.134441340141
0.13499015525
0.135506389842
0.135986906892
0.13643010821
0.136804745792
0.137168109135
0.137489257268
0.137767498267
0.138001986662
0.138191687421
0.138336285003
0.138436219057
0.138507792592
6.45488962017e-195
6.45488962017e-195
6.45488962017e-195
6.45488962017e-195
6.45488962017e-195
6.45488962018e-195
6.45488962018e-195
6.45488962018e-195
6.45488962018e-195
6.45488962018e-195
6.4548896202e-195
6.45488962143e-195
6.45488968941e-195
6.45489344986e-195
6.45509454257e-195
6.46590164371e-195
6.64928802827e-195
4.59728796278e-47
1.7923787858e-09
0.000227394538315
0.0326906713183
0.0663910642221
0.0864057727068
0.0962943686904
0.100979233372
0.103355731005
0.104961695666
0.106361946239
0.107669803864
0.108947469731
0.110163486905
0.111363717401
0.11250545778
0.1136352707
0.114733636008
0.115782301909
0.116824019304
0.117818828734
0.118812289003
0.119782258886
0.120709324653
0.121637753284
0.122549373163
0.123416784608
0.124290207059
0.125146707909
0.125960128086
0.126779913918
0.127580928278
0.128362254183
0.129095883078
0.129836094989
0.130551186312
0.131240203776
0.131872944174
0.132505858156
0.133106246942
0.133673931456
0.134206690443
0.134672890271
0.135129366305
0.135544905806
0.135918091173
0.136248582944
0.136534782773
0.136776471291
0.136941042538
0.137091394078
0.13719499685
0.137267228093
6.45488962009e-195
6.45488962009e-195
6.45488962009e-195
6.45488962009e-195
6.4548896201e-195
6.4548896201e-195
6.4548896201e-195
6.4548896201e-195
6.4548896201e-195
6.4548896201e-195
6.45488962022e-195
6.4548896266e-195
6.45488997123e-195
6.4549084705e-195
6.45586449473e-195
6.50427262496e-195
7.06931185447e-195
3.50691977668e-22
4.93056903437e-06
0.0086032672164
0.0462511440345
0.0734503930158
0.0881587026789
0.0952794113191
0.0987333113516
0.100742617128
0.102323133609
0.103759594064
0.105155252175
0.106482457565
0.107785909108
0.109027659825
0.110231278739
0.111421431945
0.112575963665
0.113680086464
0.114775432528
0.115820697909
0.116863663573
0.11785871979
0.11885402682
0.119827206712
0.120755782027
0.121690375423
0.12260391636
0.123470537534
0.124343955298
0.125197409739
0.126003790549
0.126815136505
0.127604064457
0.128369328832
0.129080460302
0.129793589595
0.130475675789
0.131128285642
0.131716637735
0.132301297354
0.132848596097
0.13335774384
0.13382638769
0.134253757765
0.134606325875
0.134946062483
0.135239768661
0.135487282739
0.135688119851
0.135841926747
0.135948994678
0.136021950892
6.45488962002e-195
6.45488962002e-195
6.45488962002e-195
6.45488962002e-195
6.45488962002e-195
6.45488962003e-195
6.45488962003e-195
6.45488962003e-195
6.45488962003e-195
6.45488962004e-195
6.45488962082e-195
6.45488966297e-195
6.45489193772e-195
6.45501101263e-195
6.46124882596e-195
6.58658870046e-195
9.06967057536e-73
2.01229674334e-13
7.81392598776e-05
0.0243042767587
0.0574100755829
0.0780103457041
0.0884794257873
0.0936065860478
0.0962950067144
0.098129213724
0.0997141661329
0.101213299029
0.102674927325
0.104066489323
0.10543390693
0.106737812863
0.107999915403
0.109245708206
0.110431936495
0.1116083917
0.112730840233
0.113846887851
0.11493642193
0.115975192125
0.117013814466
0.118004878535
0.11899762679
0.119968538787
0.120891387048
0.121820149049
0.122728128958
0.123585977799
0.124448581132
0.125287705335
0.126073994865
0.126863280793
0.127624557307
0.128357535108
0.129029492938
0.129699485783
0.130334689311
0.130933733586
0.131495013189
0.131983320021
0.132464098716
0.132900939199
0.133292922429
0.133639136733
0.133939089657
0.134192199833
0.134398803133
0.134524303111
0.134636041809
0.134709851129
6.45488961995e-195
6.45488961996e-195
6.45488961996e-195
6.45488961996e-195
6.45488961996e-195
6.45488961996e-195
6.45488961996e-195
6.45488961996e-195
6.45488961996e-195
6.45488962006e-195
6.45488962517e-195
6.45488989823e-195
6.45490443711e-195
6.45565139233e-195
6.49342903176e-195
6.95885946208e-195
4.4122034238e-26
1.9736178703e-06
0.00401845106094
0.0392094756927
0.0657555016786
0.0805115371928
0.0878379268849
0.0915352350814
0.0937702726359
0.0955526466064
0.0971815403129
0.0987407953742
0.1002650326
0.101718455467
0.103121875562
0.104501173753
0.10581844543
0.107117140119
0.108353678375
0.109580060665
0.110746843081
0.111909045127
0.113016860386
0.114120903042
0.1151725572
0.116225958558
0.117256641297
0.118234360267
0.119217714258
0.120177940177
0.121088288604
0.122002296339
0.122891964449
0.12372685065
0.124565857239
0.125377889693
0.126129569768
0.126881752454
0.127601146957
0.128286271964
0.128935965132
0.129514453476
0.130087034816
0.13061881809
0.131107729268
0.131552975826
0.131919836666
0.132273050891
0.132578086961
0.132836367016
0.133046409868
0.133208675793
0.133323038578
0.133397873256
6.45488961989e-195
6.4548896199e-195
6.4548896199e-195
6.4548896199e-195
6.4548896199e-195
6.4548896199e-195
6.4548896199e-195
6.4548896199e-195
6.45488961992e-195
6.45488962067e-195
6.45488966105e-195
6.45489180927e-195
6.45500281735e-195
6.46072322415e-195
6.58045829439e-195
7.85491521053e-73
4.64128988209e-14
5.467464821e-05
0.0201810612397
0.0514648090914
0.071109399989
0.0812952910459
0.0864143471453
0.0892628149293
0.0912872230908
0.0930636624636
0.0947451621215
0.0963623308957
0.0979417843583
0.099447973547
0.100904405111
0.102336418041
0.103699911929
0.105022323476
0.106328254932
0.107573764168
0.108810211418
0.109985945291
0.111157729851
0.11227522224
0.113389152278
0.114476789295
0.11551113221
0.116549390268
0.117534378976
0.11852305133
0.119487199889
0.120396089801
0.121309876634