/*--------------------------------*- C++ -*----------------------------------*\
| =========                 |                                                 |
| \\      /  F ield         | foam-extend: Open Source CFD                    |
|  \\    /   O peration     | Version:     4.1                                |
|   \\  /    A nd           | Web:         http://www.foam-extend.org         |
|    \\/     M anipulation  |                                                 |
\*---------------------------------------------------------------------------*/
FoamFile
{
    version     2.0;
    format      ascii;
    class       volScalarField;
    location    "0.0007";
    object      p;
}
// * * * * * * * * * * * * * * * * * * * * * * * * * * * * * * * * * * * * * //

dimensions      [1 -1 -2 0 0 0 0];

internalField   nonuniform List<scalar> 
8400
(
66.728184987
66.728184987
66.7281849871
66.7281849871
66.7281849872
66.7281849872
66.7281849873
66.7281849873
66.7281849874
66.7281849874
66.7281849874
66.7281849875
66.7281849875
66.7281849876
66.7281849876
66.7281849876
66.7281849877
66.7281849881
66.7281850116
66.728186366
66.7282621517
66.7325452259
66.8378019325
109.357357719
1054.49200091
5257.13433815
23930.9665047
62699.5303129
126081.183092
195363.335171
242909.734026
263211.093188
269100.718514
270380.637215
270506.576685
270377.993916
270208.005593
270044.493585
269896.714059
269765.40535
269649.466354
269547.92868
269465.044324
269374.873887
269318.002677
269265.882494
269222.974959
269188.925238
269162.822666
269142.197299
269125.333597
269112.003967
269106.159229
269109.457839
269121.168628
269136.585284
269151.328738
269167.101361
269193.5671
269209.0629
269249.806806
269284.531824
269316.819751
269348.650839
269383.050529
269421.986498
269465.625308
269512.404129
269563.844854
270480.243354
66.728184973
66.728184973
66.728184973
66.728184973
66.7281849731
66.7281849731
66.7281849731
66.7281849731
66.7281849731
66.7281849732
66.7281849732
66.7281849732
66.7281849732
66.7281849732
66.7281849732
66.7281849733
66.7281849733
66.7281849754
66.7281850964
66.7281921183
66.7285818965
66.7505972414
67.072938161
321.696710952
2369.82399786
11133.592861
36227.2842635
85708.6800579
155640.787104
219752.069755
256144.351901
269445.739132
273288.377779
274529.956942
275171.035639
275671.615265
276131.076809
276569.116964
276989.617014
277393.159246
277774.96004
278159.5719
278506.289576
278843.182339
279165.777678
279474.012726
279768.402736
280048.973595
280313.222152
280559.576265
280789.07286
281005.457095
281214.547767
281415.614279
281604.504261
281776.896751
281933.256701
282086.42432
282212.169573
282353.784217
282476.058344
282581.300793
282673.279688
282759.193581
282842.49332
282921.224534
282989.902261
283047.696147
283098.783098
283835.543773
66.7281849664
66.7281849665
66.7281849665
66.7281849665
66.7281849665
66.7281849665
66.7281849665
66.7281849665
66.7281849665
66.7281849665
66.7281849666
66.7281849666
66.7281849666
66.7281849666
66.7281849666
66.7281849666
66.7281849668
66.7281849764
66.7281855396
66.7282180515
66.7300629841
66.8023024508
78.4702736283
831.093682645
4091.23745802
19519.7299403
53911.7225123
114290.982041
185965.630687
239636.410274
264413.116671
272283.309252
274613.407455
275575.448559
276231.042829
276800.853583
277324.968193
277838.35255
278303.872136
278750.011699
279172.037143
279570.383563
279946.336144
280300.753793
280634.89357
280951.708412
281251.552446
281533.624963
281795.701473
282037.321925
282262.573691
282477.392187
282682.532918
282873.893794
283046.590689
283201.965187
283346.367888
283485.719716
283620.751017
283745.193824
283850.466415
283934.441717
284006.951657
284083.036298
284165.267023
284243.170393
284301.0858
284337.62404
284371.952147
284976.494248
66.7281849626
66.7281849626
66.7281849626
66.7281849626
66.7281849626
66.7281849626
66.7281849626
66.7281849626
66.7281849626
66.7281849626
66.7281849626
66.7281849626
66.7281849626
66.7281849627
66.7281849627
66.7281849627
66.7281849635
66.7281850111
66.7281878027
66.728345328
66.7374177974
66.9079356558
172.044716929
1534.36507012
7137.9649947
29409.6995721
73574.9717116
141267.233345
209355.685872
251773.992784
268260.098387
273102.707517
274646.576789
275444.962963
276060.078472
276610.074473
277120.523518
277592.679077
278055.145201
278468.114881
278860.103268
279227.271711
279570.446526
279890.895201
280190.051762
280470.857955
280734.11742
280979.458272
281205.183547
281411.534345
281602.712178
281784.700094
281957.05326
282115.833996
282257.740086
282385.811981
282506.243393
282620.877442
282732.498474
282810.057674
282895.687256
282966.28008
283033.379431
283097.961319
283156.837857
283205.487115
283244.028645
283276.363161
283307.657564
283833.995872
66.72818496
66.72818496
66.72818496
66.72818496
66.72818496
66.72818496
66.72818496
66.72818496
66.72818496
66.72818496
66.72818496
66.72818496
66.7281849601
66.7281849601
66.7281849601
66.7281849601
66.7281849632
66.7281851425
66.7281955356
66.7287722934
66.7611987454
67.1907971074
442.826445897
2741.11381998
13220.7063724
40499.9597375
93200.8768193
164291.329857
225858.112702
258485.531178
269645.375477
272814.326599
273959.144215
274652.102186
275224.010306
275742.209339
276221.222148
276665.774378
277078.562496
277462.526057
277814.866342
278162.183453
278464.553061
278750.423675
279016.295115
279263.440495
279493.362183
279705.979488
279900.362309
280077.983052
280247.868825
280387.686367
280538.517702
280670.295876
280788.34265
280896.395021
280998.106617
281092.919053
281177.591669
281250.902411
281314.066193
281371.810485
281426.988537
281478.747954
281524.260236
281561.609992
281590.5028
281613.683252
281635.013448
282106.89303
66.7281849582
66.7281849582
66.7281849582
66.7281849582
66.7281849582
66.7281849582
66.7281849582
66.7281849582
66.7281849582
66.7281849582
66.7281849582
66.7281849582
66.7281849582
66.7281849582
66.7281849582
66.7281849584
66.7281849664
66.7281854382
66.7282129417
66.7297741555
66.7980963787
74.7269600482
797.498083509
3927.35732995
18819.0504445
52395.5705073
111870.264042
183237.220951
237121.376516
261972.703884
269702.914692
271929.075578
272835.079444
273449.545634
273977.008376
274458.11384
274901.866127
275311.584062
275689.683202
276038.636283
276360.651
276658.27289
276933.595843
277189.209899
277426.823377
277647.248122
277850.76298
278036.746885
278206.030848
278361.333521
278504.972276
278637.974674
278758.667559
278868.404148
278968.958773
279063.928133
279152.896841
279231.693274
279297.161394
279351.400577
279400.766563
279447.0434
279490.523562
279537.063309
279560.254057
279597.290511
279619.876619
279636.63693
279652.584814
280118.918648
66.7281849568
66.7281849568
66.7281849568
66.7281849568
66.7281849569
66.7281849569
66.7281849569
66.7281849569
66.7281849569
66.7281849569
66.7281849569
66.7281849569
66.7281849569
66.7281849569
66.7281849569
66.7281849574
66.7281849834
66.7281865017
66.72827192
66.7331267633
66.8469840679
116.644198633
1107.80186273
5538.27374165
24990.2041225
64888.0234658
129418.165699
198617.844081
244711.390833
263511.526038
268979.745925
270623.98701
271375.288812
271926.783932
272410.025825
272851.13887
273257.05413
273630.971339
273974.775965
274291.757842
274582.753292
274850.220417
275096.291389
275323.085208
275533.15115
275726.826327
275905.260649
276068.228299
276216.088168
276350.533081
276474.029783
276588.117522
276691.203559
276783.177677
276871.984408
276934.731745
277011.903741
277076.944523
277132.046754
277178.399434
277218.894169
277255.59057
277289.505941
277319.812795
277346.805196
277369.25233
277386.101918
277396.888697
277403.657717
277808.943858
66.7281849558
66.7281849558
66.7281849558
66.7281849558
66.7281849558
66.7281849558
66.7281849558
66.7281849558
66.7281849559
66.7281849559
66.7281849559
66.7281849559
66.7281849559
66.7281849559
66.7281849559
66.7281849572
66.7281850318
66.7281893699
66.7284314478
66.7421559659
66.9740620409
221.014196936
1941.98300023
8650.19557214
31961.6717529
77917.4925822
145800.989379
211102.277131
249599.67056
263741.907477
267690.367846
268946.181573
269584.619369
270081.467364
270523.364352
270927.041938
271296.771092
271635.740521
271946.607012
272231.720805
272492.722562
272731.774099
272950.534052
273151.980886
273335.942103
273504.309412
273658.811289
273806.103586
273919.631019
274040.500546
274143.917031
274238.434754
274325.951447
274406.636994
274477.394024
274538.607301
274592.171181
274641.572155
274688.178594
274731.24812
274764.778299
274787.613504
274804.489217
274825.956166
274829.160764
274853.569062
274870.272564
274878.743883
274877.902065
275254.830193
66.728184955
66.728184955
66.728184955
66.728184955
66.728184955
66.7281849551
66.7281849551
66.7281849551
66.7281849551
66.7281849551
66.7281849551
66.7281849551
66.7281849551
66.7281849551
66.7281849551
66.7281849583
66.728185141
66.7281956847
66.7287786996
66.7613712685
67.1944197922
438.239195255
2721.83758165
13005.0787685
39888.4473595
91553.6645948
161087.941425
221107.332696
252567.312072
263110.803993
265967.033125
266939.961718
267488.623125
267947.315572
268337.887232
268698.632575
269028.450935
269334.726099
269595.296265
269854.480988
270085.79021
270296.048159
270487.970952
270663.309477
270822.236996
270966.630516
271099.222218
271220.316883
271330.594871
271428.002053
271513.47615
271590.663444
271662.489857
271727.684583
271789.901738
271823.984079
271869.946716
271905.972374
271938.83923
271970.016727
271995.437068
272013.356106
272024.352783
272030.809613
272036.657137
272042.161554
272046.994956
272049.112508
272047.382026
272410.803136
66.7281849544
66.7281849544
66.7281849544
66.7281849544
66.7281849544
66.7281849544
66.7281849544
66.7281849544
66.7281849544
66.7281849544
66.7281849544
66.7281849544
66.7281849544
66.7281849544
66.7281849546
66.7281849611
66.7281853337
66.7282065011
66.7293679711
66.7916827046
69.1165233478
734.569016786
3611.7007639
17319.2580473
48957.6693337
105740.86533
175255.5165
228939.550972
254068.022771
261810.267319
263892.774448
264658.541395
265129.689303
265518.371183
265866.740091
266184.974651
266475.071914
266739.396966
266981.354131
267200.372941
267398.337287
267578.014947
267740.55582
267888.935671
268021.893443
268140.788787
268249.729146
268347.750955
268439.92997
268503.535512
268577.592599
268638.692408
268693.767019
268743.304176
268784.568754
268817.741032
268845.198923
268868.515407
268889.655598
268913.788479
268913.455408
268928.138347
268931.618915
268931.18496
268927.773725
268921.716756
268913.833377
268905.584084
268898.15837
269245.585895
66.7281849539
66.7281849539
66.7281849539
66.7281849539
66.7281849539
66.7281849539
66.7281849539
66.7281849539
66.7281849539
66.7281849539
66.7281849539
66.7281849539
66.7281849539
66.7281849539
66.7281849543
66.7281849738
66.7281861025
66.7282496127
66.7318290422
66.8301497582
99.5250518931
987.294061983
4876.22924718
22432.9244921
59289.5508377
120433.11115
188215.6245
234887.442404
254409.499875
260001.000391
261516.432381
262119.17377
262516.610826
262849.397526
263146.895501
263417.491285
263662.078291
263884.134715
264085.106588
264267.554374
264431.185233
264577.895749
264715.723554
264818.42584
264930.124382
265023.198254
265106.72822
265180.814125
265245.706537
265303.333647
265352.950353
265395.973656
265438.530309
265455.122114
265486.775863
265504.924046
265518.871326
265531.186869
265541.478581
265546.683885
265544.680881
265536.56832
265526.893001
265518.429251
265517.870916
265493.170243
265487.204937
265469.599319
265448.324633
265760.526141
66.7281849535
66.7281849535
66.7281849535
66.7281849535
66.7281849535
66.7281849535
66.7281849535
66.7281849535
66.7281849535
66.7281849535
66.7281849535
66.7281849535
66.7281849535
66.7281849535
66.7281849544
66.7281850052
66.7281879397
66.7283514287
66.7376016554
66.9116276288
169.448428549
1494.44120574
6890.65864667
28641.5041218
71078.7902216
135569.466435
199809.949817
239081.87943
253787.446844
257747.067654
258839.35464
259310.628151
259636.618991
259913.763343
260159.087768
260379.777916
260579.052564
260762.009145
260908.007319
261057.013111
261186.674286
261299.75454
261399.492434
261487.376894
261563.043426
261628.532429
261691.190615
261725.314678
261773.850762
261808.671319
261837.190104
261859.957775
261879.436539
261893.599367
261902.211082
261910.349572
261895.185562
261898.774194
261894.304761
261887.020914
261873.966023
261856.140886
261835.827478
261815.565033
261795.610156
261774.045387
261749.150401
261721.821531
261694.208255
261988.170411
66.7281849531
66.7281849531
66.7281849531
66.7281849531
66.7281849531
66.7281849531
66.7281849531
66.7281849531
66.7281849531
66.7281849531
66.7281849531
66.7281849531
66.7281849531
66.7281849532
66.7281849557
66.7281851015
66.7281934569
66.7286529936
66.7541968714
67.1181345089
350.044081714
2449.56139331
11249.6102528
36275.2624284
84366.5662226
150759.960834
209832.829621
241673.268345
252341.456843
255080.525138
255852.73812
256212.955919
256472.821009
256697.560212
256878.822941
257057.522538
257210.732888
257346.464789
257466.887624
257570.823682
257662.833618
257745.453533
257798.480607
257859.638412
257906.318047
257945.713526
257977.054315
258001.860472
258020.553927
258037.977398
258029.859292
258039.215935
258037.887682
258033.313209
258025.709894
258014.377443
257997.812859
257984.300176
257949.418735
257934.605876
257910.977745
257883.552124
257851.779207
257817.406927
257782.409473
257748.319784
257714.933627
257680.953531
257645.60747
257913.387274
66.7281849528
66.7281849528
66.7281849528
66.7281849528
66.7281849528
66.7281849528
66.7281849528
66.7281849528
66.7281849528
66.7281849528
66.7281849528
66.7281849528
66.7281849528
66.7281849529
66.7281849592
66.7281853111
66.7282051452
66.7292778088
66.7868713008
67.4692865643
673.015485083
3359.26891952
15930.388916
45587.5991877
99130.1118872
165694.894235
218018.486065
242787.214612
250238.546933
252082.629975
252615.234174
252862.836867
253059.123789
253222.446626
253361.580552
253484.105832
253587.103597
253679.742417
253740.86326
253810.760028
253863.379164
253907.600406
253940.65998
253963.947515
253985.252633
253979.675454
253990.51033
253990.867603
253984.265183
253972.422156
253957.657312
253944.336847
253909.438319
253893.894014
253868.809364
253838.665556
253805.092885
253770.787676
253742.488229
253691.415308
253661.62041
253621.909687
253578.668131
253533.956414
253489.311849
253445.043591
253400.584271
253355.075441
253308.926544
253548.681826
66.7281849525
66.7281849525
66.7281849526
66.7281849526
66.7281849526
66.7281849526
66.7281849526
66.7281849526
66.7281849526
66.7281849526
66.7281849526
66.7281849526
66.7281849526
66.7281849529
66.728184973
66.7281861185
66.7282498097
66.7317857661
66.8313085328
97.3772893986
966.87530447
4714.25642117
21546.740943
56819.0122182
115153.77414
179779.346462
224249.834838
242595.224067
247609.139167
248780.789654
249126.772003
249296.060302
249420.133358
249517.797801
249603.646935
249654.647526
249713.10251
249754.761077
249784.145934
249805.11074
249820.750179
249811.21562
249813.236057
249804.669149
249787.780925
249771.689166
249734.277697
249712.401573
249680.887638
249646.174525
249607.290512
249566.512025
249532.22876
249476.056432
249438.669745
249390.927763
249340.747215
249290.319302
249241.175123
249198.700025
249131.150231
249080.947718
249023.411611
248968.270914
248917.315244
248866.41425
248812.529993
248754.66552
248695.280763
248903.868282
66.7281849523
66.7281849523
66.7281849523
66.7281849523
66.7281849523
66.7281849523
66.7281849523
66.7281849523
66.7281849523
66.7281849523
66.7281849523
66.7281849523
66.7281849524
66.7281849535
66.7281850164
66.7281886097
66.7283866364
66.739446194
66.9385275791
185.831233683
1611.45983648
7022.27419657
28773.1638199
70279.7538106
132133.036739
192485.216203
228396.833821
241314.908131
244497.634296
245207.975149
245403.28714
245494.010806
245533.194234
245574.297179
245594.739776
245604.705659
245609.205927
245586.228859
245573.792031
245550.423149
245519.384273
245489.052562
245433.185638
245394.722526
245345.928483
245293.559264
245246.333927
245176.01527
245124.708145
245064.569313
245003.890232
244940.832587
244884.523313
244808.285887
244749.718661
244683.443774
244615.474629
244549.213652
244485.647653
244428.228546
244347.820814
244284.01231
244212.633708
244144.669218
244081.364144
244019.205324
243954.792794
243887.037511
243817.600419
243996.74449
66.7281849521
66.7281849521
66.7281849521
66.7281849521
66.7281849521
66.7281849521
66.7281849521
66.7281849521
66.7281849521
66.7281849521
66.7281849521
66.7281849521
66.7281849522
66.728184956
66.7281851721
66.7281973142
66.7288526724
66.7642941393
67.2306132171
440.60207164
2698.50782519
12356.1268061
38033.6606582
85909.2003959
149388.615651
203172.061916
230539.556548
239054.258736
240964.3239
241347.57017
241425.429354
241419.003704
241408.185821
241385.818715
241334.094191
241294.901412
241241.808137
241185.595286
241126.749776
241045.727144
240978.638516
240904.7396
240830.577797
240737.362279
240661.477518
240578.030867
240496.190262
240417.163016
240319.119784
240239.490116
240154.918101
240070.806522
239993.71977
239897.315927
239821.267382
239736.029678
239648.810591
239564.392764
239483.593255
239412.067547
239315.7778
239239.293427
239157.009019
239078.672205
239003.836803
238928.141681
238849.89612
238770.091952
238690.711264
238842.158563
66.7281849519
66.7281849519
66.728184952
66.728184952
66.728184952
66.728184952
66.728184952
66.728184952
66.728184952
66.728184952
66.728184952
66.728184952
66.7281849522
66.7281849646
66.7281856721
66.7282252704
66.7303968897
66.8120665042
79.4966612481
829.294307325
3979.8895793
18316.496235
49817.615066
103574.17021
166048.252108
211329.577546
230814.213194
236063.33963
237106.230267
237235.170394
237208.852489
237141.6166
237045.452298
236959.279096
236862.526734
236765.16453
236646.423634
236542.925236
236433.647096
236326.56052
236199.359703
236089.937799
235973.923495
235864.034346
235735.986232
235627.87259
235515.442042
235409.629615
235283.157824
235179.91846
235071.476227
234965.160993
234865.400636
234748.931368
234651.737881
234549.288162
234448.328088
234349.473846
234258.282425
234144.984572
234053.074938
233956.515641
233864.259945
233776.39541
233688.991653
233599.62581
233508.343128
233417.023171
233328.26033
233452.855708
66.7281849518
66.7281849518
66.7281849518
66.7281849518
66.7281849518
66.7281849518
66.7281849518
66.7281849518
66.7281849518
66.7281849518
66.7281849518
66.7281849518
66.7281849527
66.7281850042
66.7281878777
66.7283429741
66.7367747388
66.9016323333
149.857294227
1304.62135045
6153.17132167
26068.8886813
64480.290433
122729.248392
181082.353479
216669.321476
229508.322031
232481.737654
232951.397478
232917.98123
232795.138252
232634.956231
232489.8743
232321.101568
232166.548747
232008.19934
231852.015058
231679.542739
231526.388273
231373.924821
231203.533368
231055.985257
230901.581378
230755.488323
230594.116104
230456.277253
230313.780564
230178.955956
230027.843029
229898.201535
229765.886973
229642.220012
229500.725129
229382.002776
229260.408519
229140.614773
229024.558646
228916.255238
228786.458337
228676.643395
228559.503518
228447.341771
228343.405814
228246.148655
228148.684231
228053.299644
227933.660636
227835.581402
227735.514332
227831.050182
66.7281849517
66.7281849517
66.7281849517
66.7281849517
66.7281849517
66.7281849517
66.7281849517
66.7281849517
66.7281849517
66.7281849517
66.7281849517
66.7281849517
66.7281849557
66.7281851771
66.7281974448
66.7288514404
66.7636771984
67.2264068578
419.897698171
2623.98095683
11620.386318
36425.424975
82035.8083534
142377.956533
193439.972798
219196.609448
226926.422172
228418.665743
228520.076765
228341.854039
228137.28639
227904.78491
227692.228166
227480.370006
227250.728654
227040.989557
226831.999434
226610.992489
226410.288871
226214.115948
226002.50236
225813.176227
225623.476741
225441.154109
225247.797544
225077.004695
224910.697136
224728.233518
224571.292009
224411.261114
224255.251443
224109.759261
223946.908928
223806.41606
223663.465088
223531.699022
223381.876839
223257.527726
223127.746223
222997.575376
222867.921019
222742.012605
222628.75138
222499.213106
222395.415108
222283.920381
222170.804971
222057.42915
221946.409605
222008.373208
66.7281849515
66.7281849515
66.7281849515
66.7281849515
66.7281849515
66.7281849515
66.7281849515
66.7281849515
66.7281849515
66.7281849515
66.7281849515
66.7281849519
66.7281849693
66.7281859425
66.7282390402
66.7310965146
66.8243923207
86.0259052425
875.447038389
4158.38733633
18779.0507473
50069.8921287
102161.302405
161080.774936
202351.731138
219266.593548
223429.294114
224004.761213
223844.519498
223579.68673
223276.563772
222993.469409
222695.421611
222417.877476
222146.9323
221864.377833
221608.854972
221339.967616
221092.958169
220853.181758
220600.785447
220373.455596
220150.93693
219917.867043
219710.564406
219504.336494
219309.703626
219099.308973
218915.304363
218731.631753
218559.034211
218371.951459
218208.691943
218042.695856
217885.703054
217711.470725
217566.424272
217418.112909
217273.775869
217131.948461
216996.892729
216842.342834
216714.12459
216585.532949
216461.15967
216338.538248
216215.751228
216092.753709
215971.578417
216001.656489
66.7281849514
66.7281849514
66.7281849514
66.7281849514
66.7281849514
66.7281849514
66.7281849514
66.7281849514
66.7281849514
66.7281849514
66.7281849515
66.7281849531
66.7281850423
66.7281899761
66.7284538165
66.7426330998
66.983242256
206.027180596
1730.90019888
7061.49789519
28257.7149423
67403.9603459
123917.03905
177197.209472
207429.364118
217349.87531
219263.216706
219295.339079
218966.60488
218606.465689
218224.724754
217873.299169
217506.805759
217168.114735
216838.024745
216500.685878
216195.446574
215877.780948
215587.917556
215304.785348
215014.786073
214748.545766
214492.120664
214225.672938
213986.751928
213755.377482
213512.928533
213296.134601
213080.572879
212877.506908
212663.841502
212476.993741
212288.14554
212106.909005
211909.628404
211739.412261
211569.011281
211403.499073
211249.632711
211079.10817
210932.248853
210780.832067
210632.33157
210489.306213
210352.282047
210225.31341
210076.497855
209949.987936
209817.887518
209817.142307
66.7281849513
66.7281849513
66.7281849513
66.7281849513
66.7281849513
66.7281849513
66.7281849513
66.7281849513
66.7281849513
66.7281849513
66.7281849515
66.7281849599
66.728185412
66.7282096837
66.7294640199
66.7929771286
67.5343277613
657.852123666
3231.97492222
14444.5253757
41324.6724798
88241.8317476
145441.536253
189312.192436
208951.826855
214002.152699
214617.047107
214313.439519
213883.686588
213421.311944
212987.41237
212547.332104
212121.212313
211726.654513
211343.099833
210956.97665
210601.929291
210239.123098
209909.07837
209568.953826
209257.849043
208957.060737
208647.258674
208369.422529
208100.178463
207820.22294
207570.169823
207327.197522
207072.125612
206846.713756
206624.86943
206415.710876
206191.483422
205993.840955
205795.233401
205608.058874
205404.696983
205230.244382
205055.459422
204886.221676
204720.612476
204563.318786
204388.122364
204239.375155
204088.758959
203942.101773
203798.308586
203656.009706
203515.470155
203485.05284
66.7281849512
66.7281849512
66.7281849512
66.7281849512
66.7281849512
66.7281849512
66.7281849512
66.7281849512
66.7281849512
66.7281849512
66.7281849523
66.7281850076
66.7281879921
66.7283442224
66.7365284451
66.9009786114
139.394747432
1209.77179046
5645.63473095
23846.8769283
58764.9802231
111617.961365
164516.47638
196592.703862
207655.595409
209730.101357
209619.676478
209123.641102
208594.844777
208054.664132
207553.153425
207052.657954
206568.797184
206119.052521
205664.275472
205248.820163
204828.324323
204439.104945
204064.784102
203686.372337
203345.036326
202993.139581
202671.599455
202361.561995
202044.033637
201756.874223
201479.931871
201190.713122
200933.543077
200686.736964
200428.943764
200199.149803
199970.028165
199753.381237
199523.071339
199321.812985
199120.336985
198924.796413
198741.073063
198540.446062
198368.171856
198192.870088
198021.972924
197854.573575
197690.931182
197531.436501
197382.307912
197213.804102
197070.725335
197011.225237
66.7281849511
66.7281849511
66.7281849511
66.7281849511
66.7281849511
66.7281849511
66.7281849511
66.7281849511
66.7281849511
66.7281849513
66.728184958
66.7281853162
66.7282043917
66.7291844223
66.7787499665
67.3894104764
521.696832697
2863.01761612
12247.4428682
37061.7283732
80564.3303439
135331.621442
178956.082823
199173.983147
204360.730502
204833.728967
204348.775254
203722.782168
203117.261048
202514.006194
201929.897204
201389.111938
200850.389633
200350.823981
199847.503396
199387.15473
198920.61371
198496.027839
198064.847581
197673.330523
197273.635821
196907.536718
196556.701503
196197.384202
195872.936667
195559.30675
195238.489862
194947.970794
194667.992035
194378.717244
194121.560428
193873.514631
193612.221172
193379.33259
193148.381849
192924.02019
192712.661108
192486.173493
192288.97653
192092.310212
191900.194488
191718.477785
191519.175299
191345.967895
191170.502091
191000.495738
190835.011561
190673.715994
190515.169861
190426.351853
66.7281849511
66.7281849511
66.7281849511
66.7281849511
66.7281849511
66.7281849511
66.7281849511
66.7281849511
66.7281849511
66.7281849521
66.7281850051
66.7281878236
66.72833347
66.7358388377
66.8929353107
129.217275827
1137.98392268
5288.3834452
22337.6319343
55366.3502725
105598.039497
156405.86832
187462.517035
198108.688217
199899.660155
199569.001361
198884.24214
198165.165848
197483.20092
196813.383327
196171.528889
195573.075118
194980.364993
194411.535218
193887.640922
193364.371212
192883.188832
192395.845366
191951.230544
191502.486304
191090.008041
190694.983602
190297.092729
189938.745522
189568.432938
189231.402908
188907.082247
188573.779485
188272.657286
187978.552891
187701.488881
187413.997907
187158.700749
186910.744358
186648.274946
186416.278581
186183.89698
185960.556432
185750.173911
185524.038997
185326.233453
185127.013362
184932.838628
184742.576184
184556.905287
184382.798295
184191.510096
184026.877171
183858.851714
183741.98457
66.728184951
66.728184951
66.728184951
66.728184951
66.728184951
66.728184951
66.728184951
66.728184951
66.7281849511
66.7281849591
66.7281853748
66.7282071218
66.7293065106
66.783770914
67.4421680284
548.119019816
2901.51898733
12064.5379084
36608.8093365
78762.8010648
130980.580386
171844.966937
190243.97204
194622.132738
194728.264504
194026.748071
193224.196544
192432.567612
191667.928272
190958.422935
190266.505133
189599.897887
188979.690474
188362.671466
187795.454058
187234.39892
186696.14781
186198.045781
185698.207312
185239.405107
184799.44783
184359.513703
183960.71129
183552.410138
183179.836944
182820.231852
182454.690998
182122.477988
181802.641996
181474.097322
181179.611546
180895.746975
180602.463352
180339.092102
180079.097769
179832.32365
179571.320264
179340.19287
179112.092616
178890.953644
178682.474031
178454.577086
178256.298639
178056.596461
177862.226175
177673.011296
177488.277757
177307.949484
177131.806553
176987.461967
66.7281849509
66.7281849509
66.7281849509
66.7281849509
66.7281849509
66.7281849509
66.7281849509
66.7281849509
66.7281849525
66.7281850313
66.7281891396
66.72839711
66.7388895923
66.9337826114
153.802117141
1273.03624514
5738.35072259
23512.3358806
56812.323285
105604.137919
152837.243275
180141.394827
188755.568309
189815.712967
189178.64546
188291.20612
187402.597327
186548.010241
185733.311664
184953.684007
184225.336754
183513.31475
182831.550585
182198.714926
181570.816868
180994.177394
180424.950387
179878.031308
179373.979677
178867.776739
178400.173583
177951.547761
177504.591704
177100.641345
176687.506453
176309.244116
175946.162034
175574.188727
175238.141086
174915.102116
174582.537893
174284.881145
173998.118603
173699.031944
173431.11056
173163.802878
172907.014687
172665.415573
172410.149548
172184.856102
171958.130801
171737.352904
171523.930802
171322.807907
171100.805151
170906.845317
170711.313565
170522.369427
170338.932512
170169.576487
66.7281849508
66.7281849509
66.7281849509
66.7281849509
66.7281849509
66.7281849509
66.7281849509
66.7281849511
66.7281849654
66.7281856975
66.7282232967
66.7301238737
66.8141750353
72.2396571126
730.948573644
3411.66697938
14252.2318971
40045.2951346
82586.5600988
131927.009604
167479.338877
181907.826205
184700.569184
184296.987704
183354.525873
182367.474196
181408.785348
180517.68058
179655.074788
178833.002821
178045.797273
177294.963577
176596.500582
175909.436166
175273.360942
174648.933141
174050.535733
173497.499212
172945.029876
172437.653702
171928.550402
171458.562813
171008.745973
170558.909175
170151.273504
169735.593704
169354.319853
168989.47273
168615.951334
168278.635141
167954.003369
167619.942882
167321.092562
167025.475879
166745.259005
166450.714465
166186.938217
165928.149214
165686.857176
165427.779905
165199.240488
164968.750895
164745.159907
164528.745194
164317.895001
164117.508817
163897.111067
163707.370999
163516.10434
163321.614429
66.7281849508
66.7281849508
66.7281849508
66.7281849508
66.7281849508
66.7281849508
66.7281849509
66.7281849547
66.7281851501
66.7281951945
66.7286958246
66.7532792602
67.1205004411
271.768788035
2034.22449019
7335.0589595
27917.4087262
63360.2646782
111098.196233
152710.002788
173820.696996
179320.019636
179419.291624
178458.026936
177375.881872
176322.89848
175317.558749
174363.425469
173457.076023
172592.18903
171785.274743
171001.156302
170252.961558
169557.055925
168875.778444
168225.948461
167623.107497
167022.849274
166471.971209
165921.208352
165417.392813
164909.605883
164446.630718
163979.565792
163550.933919
163139.058521
162722.274117
162343.673424
161978.18924
161606.644505
161270.096733
160946.918051
160612.913678
160313.174595
160015.663232
159735.295466
159439.363815
159177.450666
158917.93654
158668.387738
158431.139517
158176.874603
157952.426969
157727.319103
157509.126474
157295.946551
157087.729725
156884.151933