/*--------------------------------*- C++ -*----------------------------------*\
| =========                 |                                                 |
| \\      /  F ield         | foam-extend: Open Source CFD                    |
|  \\    /   O peration     | Version:     4.1                                |
|   \\  /    A nd           | Web:         http://www.foam-extend.org         |
|    \\/     M anipulation  |                                                 |
\*---------------------------------------------------------------------------*/
FoamFile
{
    version     2.0;
    format      ascii;
    class       volScalarField;
    location    "0.0007";
    object      rho;
}
// * * * * * * * * * * * * * * * * * * * * * * * * * * * * * * * * * * * * * //

dimensions      [1 -3 0 0 0 0 0];

internalField   nonuniform List<scalar> 
8400
(
0.00101999409822
0.00101999409822
0.00101999409822
0.00101999409822
0.00101999409823
0.00101999409823
0.00101999409823
0.00101999409823
0.00101999409823
0.00101999409823
0.00101999409823
0.00101999409823
0.00101999409823
0.00101999409823
0.00101999409823
0.00101999409823
0.00101999409823
0.00101999409824
0.00101999409858
0.00101999411813
0.00101999521167
0.00102005702102
0.00102156560951
0.0010398853714
0.00116912602897
0.00165546068805
0.00287608521755
0.00519700566744
0.00859475233894
0.0120714621262
0.0143648590645
0.0153169690702
0.0155824659848
0.0156313159927
0.0156266639244
0.0156107431455
0.0155934185745
0.0155768076856
0.0155612314239
0.0155466114348
0.0155327776303
0.0155195674516
0.0155071168442
0.0154953703084
0.0154837102221
0.0154719311431
0.0154601789314
0.015448415111
0.0154365427123
0.0154244393149
0.0154120364019
0.0153993909422
0.0153866602276
0.0153739620008
0.0153612374263
0.0153483423931
0.0153352944107
0.0153223782496
0.0153102064879
0.0152989450493
0.0152880221069
0.0152773860142
0.0152674676605
0.0152586021308
0.0152510824947
0.0152450704908
0.01524064868
0.0152378862258
0.0152369428329
0.0152776688848
0.00101999409802
0.00101999409802
0.00101999409802
0.00101999409802
0.00101999409802
0.00101999409802
0.00101999409803
0.00101999409803
0.00101999409803
0.00101999409803
0.00101999409803
0.00101999409803
0.00101999409803
0.00101999409803
0.00101999409803
0.00101999409803
0.00101999409803
0.00101999409806
0.00101999409981
0.00101999420112
0.00101999982179
0.0010203171215
0.00102494517366
0.00106914306176
0.00130443840464
0.00202899313833
0.00363601358772
0.00643720565063
0.010050758338
0.0131967303394
0.0149302590599
0.0155525929513
0.0157282615889
0.0157823274588
0.015807846762
0.0158264224459
0.0158427335493
0.0158577240352
0.0158715684991
0.0158842587484
0.0158954978635
0.015905222108
0.0159139264783
0.0159216925811
0.0159282818292
0.0159336637896
0.0159378114776
0.0159406515503
0.0159420992035
0.0159421387642
0.0159409036301
0.015938621021
0.0159354519722
0.0159314003631
0.0159263625838
0.0159203333187
0.0159135607998
0.0159067426293
0.0159001753751
0.0158932389626
0.0158857955945
0.0158783176422
0.0158712900273
0.0158651588758
0.0158600393245
0.0158558003849
0.0158524023134
0.0158500549371
0.0158491438748
0.0158813882581
0.00101999409793
0.00101999409793
0.00101999409793
0.00101999409793
0.00101999409793
0.00101999409793
0.00101999409793
0.00101999409793
0.00101999409793
0.00101999409793
0.00101999409793
0.00101999409793
0.00101999409793
0.00101999409793
0.00101999409793
0.00101999409793
0.00101999409794
0.00101999409807
0.00101999410625
0.00101999457767
0.00102002132763
0.00102105603107
0.00103347004676
0.00112872133534
0.00152343822089
0.00257489745182
0.00467213128278
0.00793151236546
0.0115325723731
0.0141233648405
0.0152940102722
0.0156605081124
0.0157667807822
0.0158096549077
0.0158377132091
0.015861246913
0.0158821115536
0.0159007452201
0.0159178409933
0.0159335256424
0.015947511499
0.0159597774643
0.0159703877352
0.0159793893144
0.0159868257089
0.0159927532169
0.0159971957906
0.0160000982831
0.0160014020637
0.0160011901702
0.0159997051195
0.0159971833049
0.0159936669219
0.0159890306401
0.0159832399927
0.0159765556295
0.0159694354651
0.0159622350218
0.0159549872708
0.0159474440694
0.0159394611008
0.0159314217759
0.0159241258109
0.0159181524535
0.0159133919667
0.0159092203253
0.0159053767987
0.0159022158978
0.0159006957387
0.01592745442
0.00101999409787
0.00101999409788
0.00101999409788
0.00101999409788
0.00101999409788
0.00101999409788
0.00101999409788
0.00101999409788
0.00101999409788
0.00101999409788
0.00101999409788
0.00101999409788
0.00101999409788
0.00101999409788
0.00101999409788
0.00101999409788
0.00101999409789
0.00101999409858
0.00101999413903
0.00101999642325
0.00102012807906
0.00102258904358
0.0010502083751
0.00122310232769
0.00181192851011
0.00321279421818
0.00577152447656
0.00931432291378
0.0126786882338
0.0147053208017
0.015480166469
0.015703111838
0.0157729906
0.0158075674834
0.0158331518418
0.0158552465564
0.0158750350853
0.0158925624664
0.0159079002913
0.0159215990488
0.0159337578818
0.0159441649307
0.0159528358397
0.0159598185893
0.0159651711137
0.0159689606558
0.0159712286437
0.0159719524769
0.0159711134898
0.0159688294804
0.0159653592247
0.0159609230784
0.0159555428268
0.0159491341664
0.0159417582069
0.0159337230691
0.015925388806
0.0159169063089
0.0159085113332
0.0159002353508
0.0158917782419
0.0158835360871
0.015876086875
0.0158694792502
0.0158636262482
0.015858521105
0.0158543262807
0.0158513043836
0.0158497218634
0.0158722929787
0.00101999409784
0.00101999409784
0.00101999409784
0.00101999409784
0.00101999409784
0.00101999409784
0.00101999409784
0.00101999409784
0.00101999409784
0.00101999409784
0.00101999409784
0.00101999409784
0.00101999409784
0.00101999409784
0.00101999409784
0.00101999409784
0.00101999409788
0.00101999410047
0.00101999425019
0.00102000255685
0.0010204693848
0.00102663569365
0.0010817755796
0.0013540711365
0.00215947207508
0.00389627048429
0.00684042903396
0.0104901149999
0.0135006278364
0.0150513091091
0.0155718932502
0.0157160695063
0.0157656461364
0.0157936964759
0.0158157281951
0.0158348906343
0.0158518387461
0.0158667424544
0.0158797059313
0.0158908292302
0.0158999219355
0.0159069893866
0.0159125807942
0.0159168102701
0.0159195023396
0.0159207009105
0.0159204218517
0.0159186560168
0.0159154554555
0.0159109832937
0.0159057169949
0.0158997997242
0.0158927094284
0.0158844611387
0.0158755140183
0.0158661537734
0.0158565794785
0.0158468381939
0.0158369427553
0.015827062552
0.0158175351471
0.0158086797774
0.0158006430119
0.0157934239165
0.0157869873569
0.0157813765721
0.0157767618079
0.0157733622084
0.0157713848652
0.0157915593725
0.00101999409781
0.00101999409781
0.00101999409781
0.00101999409781
0.00101999409781
0.00101999409781
0.00101999409781
0.00101999409781
0.00101999409781
0.00101999409781
0.00101999409781
0.00101999409781
0.00101999409781
0.00101999409781
0.00101999409781
0.00101999409782
0.00101999409793
0.00101999410479
0.00101999450414
0.00102001716863
0.00102099591525
0.00103268133324
0.00112354040657
0.00150613691102
0.00253543715799
0.00460412436842
0.00784714331638
0.0114653613149
0.0140858598847
0.015263724103
0.015621566854
0.0157188534186
0.0157547656393
0.0157767381163
0.0157943655715
0.0158095602121
0.0158227283175
0.0158339870955
0.0158434013163
0.0158510301603
0.0158569312356
0.0158611830264
0.0158638845758
0.015865107214
0.015864906743
0.0158633265376
0.0158603703287
0.0158560436421
0.0158504236737
0.0158436789186
0.0158359909386
0.0158274440323
0.0158180515051
0.0158079425994
0.0157974174696
0.0157867141085
0.0157758364938
0.0157647130931
0.0157534673985
0.0157424355133
0.0157319485781
0.0157222092297
0.0157133398253
0.0157057130506
0.015699363544
0.0156937001683
0.0156887401569
0.0156851202948
0.0156827862576
0.0157007954036
0.00101999409779
0.00101999409779
0.00101999409779
0.00101999409779
0.00101999409779
0.00101999409779
0.00101999409779
0.00101999409779
0.00101999409779
0.00101999409779
0.00101999409779
0.00101999409779
0.00101999409779
0.00101999409779
0.00101999409779
0.0010199940978
0.00101999409818
0.0010199941201
0.00101999535315
0.00102006542642
0.00102169816918
0.00104146006088
0.00117868498028
0.00168607361408
0.0029478309897
0.00533126319896
0.00879029405357
0.0122748008783
0.0145085962136
0.0153984487822
0.0156481889216
0.0157151691057
0.0157408587502
0.0157570522816
0.0157698981105
0.0157806297205
0.0157895369858
0.0157967129587
0.0158021888352
0.0158059934357
0.0158082068637
0.0158089281279
0.0158082371825
0.0158061936938
0.0158028483002
0.0157982412204
0.0157923814309
0.0157853024869
0.0157771082828
0.0157679408472
0.015757928454
0.0157471504217
0.0157356768306
0.0157236425471
0.0157115443222
0.0156996199791
0.0156874022691
0.0156748726131
0.0156624418721
0.0156503836787
0.0156389432077
0.0156282766619
0.0156184937957
0.0156097205543
0.015602050211
0.0155955051354
0.0155901017514
0.0155859111525
0.0155830950428
0.0156001901906
0.00101999409778
0.00101999409778
0.00101999409778
0.00101999409778
0.00101999409778
0.00101999409778
0.00101999409778
0.00101999409778
0.00101999409778
0.00101999409778
0.00101999409778
0.00101999409778
0.00101999409778
0.00101999409778
0.00101999409778
0.0010199940978
0.00101999409888
0.00101999416152
0.00101999765494
0.00102019563308
0.00102352880555
0.00105765779389
0.00125776764091
0.00190693600641
0.00340084198752
0.00607983053831
0.00967600588777
0.0129492935538
0.0148153593246
0.0154822375021
0.0156574324111
0.0157034296968
0.0157209802858
0.015731740457
0.0157397871224
0.0157459335726
0.0157503806357
0.015753216351
0.0157544961601
0.0157542782815
0.0157526589868
0.0157497259715
0.0157454952343
0.0157399740551
0.0157332518678
0.0157254425522
0.0157165888834
0.0157069432225
0.0156965414322
0.0156849604094
0.0156723785045
0.0156592782938
0.0156457597265
0.015631821555
0.0156175502988
0.0156031429332
0.0155888348231
0.0155748672047
0.015561357444
0.0155482496496
0.015535550763
0.015523525245
0.0155125372371
0.0155030804189
0.0154952448645
0.0154884939976
0.0154827752563
0.0154782670845
0.0154749568863
0.0154906739841
0.00101999409777
0.00101999409777
0.00101999409777
0.00101999409777
0.00101999409777
0.00101999409777
0.00101999409777
0.00101999409777
0.00101999409777
0.00101999409777
0.00101999409777
0.00101999409777
0.00101999409777
0.00101999409777
0.00101999409777
0.00101999409781
0.00101999410045
0.00101999425246
0.00102000265617
0.00102047224065
0.00102669124868
0.00108214411414
0.0013557484396
0.00216402830323
0.00390639166594
0.00685836039351
0.0105135566387
0.0135154503345
0.015040637638
0.0155329536843
0.0156545616509
0.0156851721987
0.015695401997
0.0157001245011
0.0157027749384
0.015704030337
0.0157037773845
0.0157022843643
0.0156996548099
0.015695478696
0.0156898034291
0.0156829500088
0.0156749463912
0.0156658019998
0.0156556026369
0.0156444594374
0.0156324465679
0.0156195867699
0.0156058714768
0.0155913549887
0.0155762088268
0.0155606436406
0.0155448089576
0.0155287663621
0.0155128053263
0.0154970497855
0.0154812093362
0.0154655321104
0.0154504458409
0.0154359989824
0.015422231262
0.0154092539817
0.0153972623095
0.015386484819
0.0153770964092
0.0153691840952
0.0153627410274
0.0153577058487
0.0153540779665
0.0153689180136
0.00101999409776
0.00101999409776
0.00101999409776
0.00101999409776
0.00101999409776
0.00101999409776
0.00101999409776
0.00101999409776
0.00101999409776
0.00101999409776
0.00101999409776
0.00101999409776
0.00101999409776
0.00101999409776
0.00101999409776
0.00101999409786
0.00101999410321
0.00101999440801
0.0010200112435
0.00102090478183
0.00103148886238
0.00111508084191
0.00147606579605
0.00246333294814
0.0044727319872
0.00766953299361
0.0113050076943
0.0139901183763
0.015206282691
0.0155622576864
0.0156433529677
0.0156604760436
0.0156635066355
0.0156626833701
0.0156600424469
0.0156560050906
0.0156506879115
0.0156441519788
0.0156364262235
0.0156275565851
0.0156176127731
0.015606645788
0.0155946718065
0.015581712472
0.0155678475714
0.0155531529276
0.0155376748511
0.0155215025161
0.0155049715235
0.0154881580673
0.0154706606169
0.0154525925919
0.0154343266005
0.0154159536909
0.0153975578561
0.0153792652288
0.015361280047
0.0153438589252
0.0153271634182
0.0153115191712
0.0152969910992
0.0152831534775
0.0152701717799
0.0152584618219
0.0152481173071
0.0152392337519
0.015231917423
0.0152262393524
0.0152222205979
0.0152362605884
0.00101999409775
0.00101999409775
0.00101999409775
0.00101999409775
0.00101999409775
0.00101999409775
0.00101999409775
0.00101999409775
0.00101999409775
0.00101999409775
0.00101999409775
0.00101999409775
0.00101999409775
0.00101999409775
0.00101999409776
0.00101999409804
0.00101999411437
0.00101999503284
0.00102004679926
0.00102145630336
0.00103845876538
0.00116039151932
0.00162841661736
0.00281898903153
0.00510943603988
0.00851350846123
0.0120479945816
0.0143839864626
0.0153258148148
0.0155750948453
0.0156248383134
0.0156301106857
0.0156256195751
0.015618348086
0.0156096612294
0.0155998405238
0.0155889983616
0.0155772045272
0.015564476072
0.0155508178779
0.0155362746913
0.0155208787445
0.0155049133486
0.0154884608504
0.0154710497843
0.0154526797466
0.0154336748537
0.015414157549
0.0153942150342
0.0153738868264
0.0153532377527
0.0153324134878
0.0153118484318
0.0152916250867
0.0152712466197
0.0152508853408
0.0152310763759
0.0152119764163
0.0151936037451
0.0151759893628
0.0151592810929
0.0151437065162
0.0151295164697
0.0151168832668
0.0151061374195
0.0150972302841
0.0150895129455
0.0150830105038
0.0150780903461
0.0150904225166
0.00101999409775
0.00101999409775
0.00101999409775
0.00101999409775
0.00101999409775
0.00101999409775
0.00101999409775
0.00101999409775
0.00101999409775
0.00101999409775
0.00101999409775
0.00101999409775
0.00101999409775
0.00101999409775
0.00101999409776
0.00101999409849
0.00101999414102
0.00101999651147
0.00102013074322
0.00102264236198
0.00105081634826
0.00122708643362
0.0018246571963
0.00324434586981
0.00582616551288
0.00938571875829
0.0127343303207
0.0147025921855
0.0154066000378
0.0155726046104
0.0155973393323
0.015591879955
0.0155798386242
0.0155658491553
0.0155508344578
0.0155349683533
0.0155183134418
0.0155012010746
0.0154837143061
0.0154653521981
0.0154460445685
0.0154260744339
0.0154054968014
0.015384329729
0.0153626258014
0.0153404418261
0.0153180855825
0.0152956248848
0.0152726090624
0.0152491316487
0.0152255597319
0.0152019728437
0.0151784913806
0.0151552447492
0.0151322997925
0.0151100418042
0.0150886947716
0.0150679436619
0.0150478843864
0.0150287708805
0.015010655707
0.0149937380563
0.0149782811911
0.0149644559334
0.0149522855222
0.0149417368401
0.0149328240131
0.0149256408918
0.0149203016826
0.0149318444283
0.00101999409774
0.00101999409774
0.00101999409774
0.00101999409774
0.00101999409774
0.00101999409774
0.00101999409774
0.00101999409774
0.00101999409774
0.00101999409774
0.00101999409774
0.00101999409774
0.00101999409774
0.00101999409774
0.00101999409778
0.00101999409989
0.00101999422063
0.00102000085902
0.0010203696592
0.00102560211191
0.00107409601845
0.00132541983018
0.00208571860524
0.00375396598274
0.00662853925012
0.010274062223
0.0133520526761
0.0149478146588
0.0154515583347
0.015553693465
0.015558485484
0.0155433026661
0.0155238196163
0.0155032587295
0.0154822298465
0.0154604419437
0.015437920246
0.0154149309186
0.0153915304547
0.0153677006221
0.0153434289646
0.0153189936156
0.0152944217319
0.0152692283911
0.0152434239999
0.0152173394038
0.0151910754735
0.015164632445
0.0151380063147
0.0151115821976
0.0150855042967
0.0150593431244
0.0150332236228
0.0150075037772
0.0149822317228
0.0149575248545
0.0149335695038
0.0149108281967
0.01488947667
0.0148690383193
0.0148495232243
0.0148312919743
0.0148145072939
0.0147993552667
0.0147859923871
0.014774500645
0.0147648797394
0.014757085223
0.0147511092697
0.0147612659191
0.00101999409774
0.00101999409774
0.00101999409774
0.00101999409774
0.00101999409774
0.00101999409774
0.00101999409774
0.00101999409774
0.00101999409774
0.00101999409774
0.00101999409774
0.00101999409774
0.00101999409774
0.00101999409774
0.00101999409783
0.0010199941029
0.00101999438839
0.0010200098204
0.00102083740941
0.00103063112851
0.00110881216721
0.0014532269516
0.00240697169379
0.00436716313173
0.00752117896553
0.0111628974932
0.0138926191589
0.0151295681335
0.0154696776494
0.0155224099541
0.0155106017307
0.0154863773004
0.0154593813879
0.0154314512959
0.0154031688835
0.0153746152457
0.015345846593
0.0153171482917
0.0152885310706
0.0152595278165
0.0152301268192
0.0152005802951
0.0151708988884
0.0151410308792
0.015111260716
0.0150817277936
0.0150519499044
0.0150218985587
0.014991884327
0.0149619897715
0.0149323280804
0.0149033211831
0.0148750903058
0.0148471337364
0.0148194949869
0.0147925679141
0.0147665117495
0.0147415298759
0.0147181216811
0.0146963496069
0.0146755977042
0.0146559704068
0.0146379726273
0.0146217590819
0.0146074106785
0.0145949640076
0.0145844225375
0.0145757743319
0.0145690466015
0.014577805919
0.00101999409773
0.00101999409773
0.00101999409773
0.00101999409773
0.00101999409773
0.00101999409773
0.00101999409773
0.00101999409773
0.00101999409773
0.00101999409773
0.00101999409773
0.00101999409773
0.00101999409773
0.00101999409774
0.00101999409803
0.00101999411462
0.0010199950368
0.00102004624702
0.00102147375908
0.00103849414336
0.00116001948858
0.00162644291909
0.00281343569753
0.00509760853433
0.00849547342521
0.0120247465542
0.014344961936
0.0152538434841
0.0154654274022
0.0154803639961
0.0154538693761
0.0154197272104
0.0153843173652
0.0153487409841
0.0153134571284
0.0152785721009
0.015243631864
0.015208596898
0.0151736794875
0.0151388504119
0.0151043771176
0.0150702981127
0.0150360597601
0.0150015894247
0.0149672297747
0.0149333354973
0.0148999380441
0.0148665499539
0.014833125562
0.014799953797
0.0147672104447
0.0147350572017
0.0147038590596
0.0146736561649
0.0146439211032
0.0146147660312
0.0145866774269
0.0145598580807
0.0145344103947
0.0145106408267
0.0144885794715
0.0144677786032
0.0144485025161
0.0144312508402
0.0144160236417
0.014402716948
0.0143912668253
0.0143817197621
0.0143742178838
0.014381570981
0.00101999409773
0.00101999409773
0.00101999409773
0.00101999409773
0.00101999409773
0.00101999409773
0.00101999409773
0.00101999409773
0.00101999409773
0.00101999409773
0.00101999409773
0.00101999409773
0.00101999409773
0.00101999409775
0.00101999409866
0.00101999415086
0.0010199970301
0.00102015793701
0.00102303572375
0.0010540003534
0.00124185896681
0.00186416613982
0.00332730135897
0.00595770945782
0.00953260767682
0.0128272916241
0.0147005877799
0.0153255578367
0.0154395195794
0.0154252502348
0.0153856532565
0.0153422088772
0.0152988422787
0.0152556989306
0.0152128318477
0.0151704729813
0.015128849466
0.01508798358
0.0150473529019
0.01500685281
0.0149667224233
0.014927250798
0.0148884167049
0.0148496578431
0.0148109729496
0.0147726714714
0.0147350680161
0.0146982185851
0.0146615938015
0.0146251850476
0.0145893769993
0.0145543392532
0.0145204363347
0.0144876994793
0.0144555667889
0.014424138798
0.0143939685263
0.0143652947548
0.0143381814337
0.0143128597392
0.0142892952645
0.0142670515482
0.0142464593697
0.0142280545851
0.0142118220737
0.0141976106073
0.0141853182501
0.0141749856189
0.014166760407
0.0141726102268
0.00101999409773
0.00101999409773
0.00101999409773
0.00101999409773
0.00101999409773
0.00101999409773
0.00101999409773
0.00101999409773
0.00101999409773
0.00101999409773
0.00101999409773
0.00101999409773
0.00101999409773
0.00101999409778
0.00101999410091
0.00101999427637
0.00102000374166
0.00102051530508
0.0010272220978
0.00108563649051
0.00136958021226
0.00219854642555
0.00397237794496
0.00695148008629
0.0105990582818
0.0135343175889
0.0149547225022
0.0153485144087
0.0153913391121
0.015354834549
0.015304025985
0.0152516815516
0.0151997110043
0.015148658173
0.0150987723632
0.0150495747783
0.0150010407531
0.0149533943618
0.0149068039249
0.0148611977229
0.0148160072158
0.0147711749591
0.0147272178739
0.0146841477091
0.0146414633585
0.0145991285273
0.0145573992965
0.0145166243311
0.0144768255197
0.0144374803291
0.01439866015
0.0143607634263
0.0143242102116
0.0142890276592
0.014254580092
0.0142209611852
0.0141887510808
0.0141581987772
0.0141293365881
0.0141023949578
0.0140773956068
0.014053877998
0.0140321165492
0.0140126246963
0.0139953617597
0.0139801623527
0.0139669421497
0.0139557806627
0.0139468389457
0.0139512247621
0.00101999409772
0.00101999409772
0.00101999409772
0.00101999409772
0.00101999409772
0.00101999409772
0.00101999409772
0.00101999409772
0.00101999409772
0.00101999409772
0.00101999409772
0.00101999409772
0.00101999409773
0.00101999409791
0.00101999410822
0.00101999468435
0.00102002625758
0.00102119806439
0.00103489858011
0.00113667930021
0.00154927053915
0.00263444378711
0.00477928946031
0.00807635666218
0.0116533950448
0.0141210763245
0.0151177943839
0.0153343334954
0.0153257537588
0.0152713716608
0.0152096198486
0.0151479431613
0.0150877365951
0.0150287439563
0.0149709109818
0.0149145783864
0.0148597596114
0.0148059588805
0.0147530576307
0.0147014776432
0.0146511528252
0.0146014946828
0.0145524778001
0.0145046300572
0.0144579745649
0.0144119459304
0.0143664590116
0.0143220891629
0.0142789370185
0.0142364664382
0.0141947411219
0.0141541331211
0.0141149552257
0.0140772473513
0.0140405484377
0.0140049899552
0.0139709735112
0.0139385778811
0.0139081550071
0.0138798113777
0.0138530859211
0.013828133625
0.0138053874571
0.0137848523778
0.0137664435026
0.0137501200681
0.013735945639
0.0137240375486
0.0137144974467
0.0137175290285
0.00101999409772
0.00101999409772
0.00101999409772
0.00101999409772
0.00101999409772
0.00101999409772
0.00101999409772
0.00101999409772
0.00101999409772
0.00101999409772
0.00101999409772
0.00101999409772
0.00101999409774
0.00101999409848
0.00101999414009
0.00101999638581
0.0010201184781
0.00102249087708
0.00104941304319
0.00122101629987
0.00180916087002
0.00321194415447
0.00576544921968
0.00930118985226
0.0126353892448
0.0145668899705
0.015200612879
0.0152898514106
0.0152441696059
0.0151739211554
0.0151014073774
0.0150305786012
0.0149617853237
0.014894945352
0.014829731817
0.0147660522259
0.0147043018865
0.0146443746611
0.0145856712829
0.0145284039544
0.0144727309592
0.0144179976813
0.0143641732194
0.0143118326132
0.0142609793372
0.0142110029809
0.0141618345082
0.0141140098104
0.014067590468
0.0140220904814
0.0139775282486
0.0139344967344
0.0138930807998
0.0138527717643
0.0138136637658
0.0137762077867
0.0137404665798
0.0137066888355
0.013674874768
0.0136445388032
0.0136159578343
0.0135897548319
0.0135660289309
0.0135445947906
0.0135252163398
0.0135081676151
0.0134936259105
0.013481174104
0.0134709280338
0.0134725070328
0.00101999409772
0.00101999409772
0.00101999409772
0.00101999409772
0.00101999409772
0.00101999409772
0.00101999409772
0.00101999409772
0.00101999409772
0.00101999409772
0.00101999409772
0.00101999409772
0.00101999409778
0.00101999410099
0.00101999427861
0.00102000374278
0.0010205072179
0.00102716824908
0.00108508391075
0.00136819240976
0.00219477955327
0.00396394883435
0.00693313250361
0.0105669437096
0.0134796410823
0.0148622403729
0.01521174916
0.0152144679055
0.0151428688292
0.0150600688977
0.0149777313241
0.014897839227
0.0148203661632
0.0147453989324
0.0146730068462
0.014602602391
0.0145342908481
0.0144681919712
0.0144036787433
0.014340885452
0.0142800035719
0.0142203841233
0.0141619460103
0.0141052542116
0.0140502919911
0.0139964448595
0.0139439232429
0.0138930098397
0.013843191992
0.013794495459
0.0137472104966
0.0137016389302
0.013657843148
0.0136153168461
0.0135741477258
0.0135350486835
0.013498106068
0.0134627308911
0.0134289224009
0.0133970299017
0.0133672350272
0.0133397806892
0.0133151237936
0.013293210863
0.0132732209046
0.0132550886444
0.0132392153941
0.0132257080136
0.0132146732897
0.0132144705795
0.00101999409772
0.00101999409772
0.00101999409772
0.00101999409772
0.00101999409772
0.00101999409772
0.00101999409772
0.00101999409772
0.00101999409772
0.00101999409772
0.00101999409772
0.00101999409772
0.00101999409798
0.00101999411214
0.00101999488397
0.00102003640815
0.00102137564044
0.00103693193873
0.00114898008216
0.00158915148694
0.00272525201089
0.00493644436136
0.00827307411696
0.0118004512223
0.0141421335569
0.0150233410391
0.015169378171
0.0151151730597
0.0150241876161
0.0149297681143
0.0148377617005
0.0147489847316
0.0146633634771
0.0145805032427
0.014500458918
0.0144233076378
0.0143487210589
0.0142765507864
0.0142063577762
0.014138244629
0.0140723578401
0.014008044487
0.0139454772543
0.0138849445394
0.0138258781978
0.0137681234848
0.0137121776969
0.0136580866255
0.0136052708628
0.0135537701359
0.0135042022989
0.0134565648192
0.0134102614302
0.0133653124426
0.013322463091
0.0132818649732
0.0132429649782
0.0132058186509
0.0131707411356
0.0131377106467
0.013107111171
0.0130791260739
0.0130533063964
0.0130297004511
0.013008523305
0.0129896709041
0.0129731245806
0.0129589271668
0.012947158773
0.0129452216562
0.00101999409772
0.00101999409772
0.00101999409772
0.00101999409772
0.00101999409772
0.00101999409772
0.00101999409772
0.00101999409772
0.00101999409772
0.00101999409772
0.00101999409772
0.00101999409774
0.00101999409904
0.00101999417086
0.00101999801108
0.00102020426083
0.00102368357803
0.0010591171924
0.00126546119931
0.0019266332251
0.00345474476877
0.00614944475546
0.0097238217939
0.012901653204
0.0145959976493
0.0150728050174
0.01508572238
0.01499441322
0.0148879088619
0.0147826094362
0.0146810834108
0.0145835080577
0.0144897274881
0.014399223458
0.0143120175947
0.0142282308603
0.01414744589
0.0140694353902
0.0139937383077
0.0139204543604
0.0138497161205
0.0137808990233
0.0137141753757
0.0136497592095
0.0135870312231
0.0135261231887
0.0134672510491
0.0134098902406
0.0133540454414
0.0133003032121
0.0132486967203
0.0131985854665
0.0131498907329
0.0131032765703
0.0130589294379
0.0130163511063
0.012975587023
0.0129370190001
0.0129010049212
0.0128675210642
0.0128359385768
0.0128063377161
0.0127791638751
0.0127545341775
0.01273246859
0.0127132175213
0.0126966732373
0.0126821140727
0.0126695989215
0.0126659634585
0.00101999409771
0.00101999409771
0.00101999409771
0.00101999409771
0.00101999409772
0.00101999409772
0.00101999409772
0.00101999409772
0.00101999409772
0.00101999409772
0.00101999409772
0.00101999409784
0.00101999410437
0.0010199944547
0.00102001254801
0.0010209279182
0.00103159093796
0.00111399850659
0.00147076496459
0.00244618316208
0.00443290201085
0.0075914434642
0.0111775175587
0.0137753308144
0.0148438175462
0.01503380636
0.0149658847724
0.0148503060663
0.0147310551004
0.0146156558219
0.0145050372675
0.0143992511376
0.0142978689521
0.0142002233547
0.0141064216547
0.0140164151535
0.0139297712604
0.0138462653447
0.0137656698909
0.0136878449998
0.0136123840769
0.0135393657989
0.0134689450045
0.0134005320895
0.0133343295891
0.0132705378076
0.0132084787662
0.0131483530468
0.0130904891032
0.0130343912116
0.0129800306087
0.0129278866846
0.0128779426339
0.0128296787641
0.0127831866807
0.0127391546804
0.0126976671078
0.012658146469
0.0126206502111
0.0125855031016
0.0125526600791
0.0125224993216
0.0124951301175
0.012469966194
0.0124470263875
0.0124266192645
0.0124086891462
0.0123931682774
0.0123800503216
0.0123747756692
0.00101999409771
0.00101999409771
0.00101999409771
0.00101999409771
0.00101999409771
0.00101999409771
0.00101999409771
0.00101999409771
0.00101999409771
0.00101999409771
0.00101999409773
0.00101999409853
0.00101999414179
0.00101999640572
0.00102011497628
0.00102248123024
0.00104902938331
0.00121815518262
0.00179961745064
0.00318754223066
0.00571261205961
0.0092112172801
0.0125030366753
0.0143728528472
0.0149243570618
0.0149334583936
0.0148180018371
0.0146851935228
0.0145547591757
0.0144298726236
0.0143105904108
0.0141968684269
0.0140881472023
0.0139838074438
0.013883840523
0.0137879999923
0.0136959309384
0.0136070607146
0.0135214399661
0.0134392166866
0.0133599446635
0.0132834144834
0.0132092191231
0.0131374846762
0.0130684201705
0.0130013727353
0.0129364660882
0.0128740328762
0.0128136096343
0.0127554500792
0.012699730744
0.0126457807262
0.0125935862337
0.0125438168515
0.0124966005611
0.0124513786028
0.0124081510049
0.0123672400868
0.012329040133
0.0122935931422
0.0122602143405
0.0122289516943
0.0122001927846
0.0121739364048
0.0121502000662
0.0121289898118
0.0121106280519
0.0120950867558
0.0120816467792
0.0120747447191
0.00101999409771
0.00101999409771
0.00101999409771
0.00101999409771
0.00101999409771
0.00101999409771
0.00101999409771
0.00101999409771
0.00101999409771
0.00101999409771
0.00101999409781
0.001019994103
0.00101999437938
0.0010200085719
0.00102072552939
0.00102952457544
0.00110047696339
0.00142438143469
0.00233293695619
0.004220081804
0.0072833614262
0.0108650180354
0.0135519632415
0.014688184339
0.0148795249008
0.0147864737994
0.0146428529536
0.0144970384777
0.0143569611747
0.014223718634
0.0140967741867
0.0139756585432
0.0138600324373
0.013749423366
0.013643594434
0.0135422688688
0.0134451438238
0.0133518415262
0.0132621463662
0.0131759175336
0.0130929199924
0.0130126340121
0.0129351632827
0.0128607317441
0.0127886552929
0.0127190027326
0.0126520154545
0.0125871383664
0.0125246359811
0.0124648250642
0.0124070638487
0.0123515457535
0.0122985697308
0.0122475769805
0.0121985847997
0.0121519076382
0.0121079427587
0.0120667632921
0.0120277364689
0.011990857112
0.0119564253473
0.0119247855812
0.0118959698462
0.0118693331839
0.0118449052825
0.0118230369198
0.0118037313367
0.0117869325126
0.0117725561261
0.0117639973411
0.00101999409771
0.00101999409771
0.00101999409771
0.00101999409771
0.00101999409771
0.00101999409771
0.00101999409771
0.00101999409771
0.00101999409771
0.00101999409773
0.0010199940985
0.00101999413941
0.00101999625261
0.00102010512433
0.00102236554505
0.00104768211542
0.00121020401792
0.00177565240426
0.00313349956308
0.00561643880887
0.00908057939199
0.0123676576351
0.0142414589611
0.0147746796769
0.014751865187
0.0146048391822
0.0144435910616
0.0142872033909
0.0141382090011
0.0139969862511
0.0138628047535
0.0137348569666
0.0136131037297
0.013496986007
0.0133859754955
0.0132798396486
0.0131781229997
0.0130805675291
0.0129869924502
0.0128971612628
0.0128105335183