/*--------------------------------*- C++ -*----------------------------------*\
| =========                 |                                                 |
| \\      /  F ield         | foam-extend: Open Source CFD                    |
|  \\    /   O peration     | Version:     4.1                                |
|   \\  /    A nd           | Web:         http://www.foam-extend.org         |
|    \\/     M anipulation  |                                                 |
\*---------------------------------------------------------------------------*/
FoamFile
{
    version     2.0;
    format      ascii;
    class       volScalarField;
    location    "0.0007";
    object      T;
}
// * * * * * * * * * * * * * * * * * * * * * * * * * * * * * * * * * * * * * //

dimensions      [0 0 0 1 0 0 0];

internalField   nonuniform List<scalar> 
8400
(
226.836296601
226.836296601
226.836296601
226.836296601
226.836296601
226.836296601
226.836296601
226.836296601
226.836296601
226.836296601
226.836296601
226.836296601
226.836296601
226.836296601
226.836296601
226.836296601
226.836296601
226.836296601
226.836296607
226.836296944
226.836315826
226.83738294
226.863607307
364.916591252
2839.28062751
6281.76283931
11876.4253075
14239.5463155
15849.3741767
16853.2635594
17356.2750036
17547.1818042
17604.3046226
17621.0572232
17627.5803833
17631.577894
17634.9431889
17638.1695043
17641.3925865
17644.6748814
17648.0657727
17651.6086422
17655.3785253
17658.5385012
17662.7546182
17667.2039883
17671.9622217
17677.0282764
17682.4133189
17688.1148049
17694.1168227
17700.4119275
17707.0530859
17713.9939577
17721.1989976
17728.5956741
17736.0740961
17743.5908359
17751.1302098
17757.8036831
17765.0893446
17771.9833945
17778.4368493
17784.3618727
17789.6801345
17794.3357242
17798.2701829
17801.3837484
17803.644842
17812.4895773
226.836296597
226.836296597
226.836296597
226.836296597
226.836296597
226.836296597
226.836296597
226.836296597
226.836296597
226.836296597
226.836296597
226.836296597
226.836296597
226.836296597
226.836296597
226.836296597
226.836296597
226.836296598
226.836296628
226.836298378
226.83639549
226.841880541
226.922190736
1044.69523073
4892.50433341
9239.37507177
12956.0059646
14987.9620417
16365.6397628
17158.4401461
17512.5598687
17631.4795228
17666.6387001
17679.2524503
17686.9937884
17693.7114567
17700.2618213
17706.8050432
17713.371761
17719.9781693
17726.6102763
17734.0928886
17740.8604299
17747.8010275
17754.8975206
17762.1485694
17769.5771253
17777.2071167
17785.0053
17792.9601211
17801.0752024
17809.3592462
17817.8920459
17826.5829914
17835.3241947
17844.0303182
17852.6765352
17861.363173
17869.0269385
17877.3142072
17885.1709627
17892.5228084
17899.3368852
17905.5496616
17911.1094174
17915.9470811
17919.9347712
17923.0133366
17925.1829351
17932.2397068
226.836296596
226.836296596
226.836296596
226.836296596
226.836296596
226.836296596
226.836296596
226.836296596
226.836296596
226.836296596
226.836296596
226.836296596
226.836296596
226.836296596
226.836296596
226.836296596
226.836296596
226.836296598
226.836296739
226.836304839
226.836764498
226.854762727
263.369291326
2478.6674509
5857.69556814
11321.115696
13913.4120333
15664.5038025
16788.4416034
17372.1087989
17599.6464639
17668.8764377
17690.0006653
17699.2384142
17706.1510233
17712.583026
17718.8741328
17725.9524363
17732.255163
17738.6660044
17745.1575227
17751.7534283
17758.4688553
17765.3161921
17772.3181217
17779.5340057
17786.946691
17794.5470304
17802.3226503
17810.2491616
17818.3695027
17826.7303366
17835.2542896
17843.8205375
17852.3725611
17860.924104
17869.4593499
17877.8990667
17886.1525222
17894.1004497
17901.6255881
17908.6065678
17915.0252735
17920.9354047
17926.2802797
17930.9051502
17934.6248129
17937.3923229
17939.3425426
17945.24266
226.836296595
226.836296595
226.836296595
226.836296595
226.836296595
226.836296595
226.836296595
226.836296595
226.836296595
226.836296595
226.836296595
226.836296595
226.836296595
226.836296595
226.836296595
226.836296595
226.836296595
226.836296607
226.836297302
226.836336549
226.838596926
226.881080897
568.699113649
3629.93799166
7061.24876423
12438.6503031
14640.3336243
16151.6100483
17056.5637932
17482.7337377
17630.0672949
17673.5494113
17687.8105917
17696.0272771
17702.9150673
17709.4559661
17715.8773619
17722.2084431
17729.3278179
17735.6694955
17742.1179803
17748.6631274
17755.3326528
17762.1343411
17769.0905373
17776.2561788
17783.6226103
17791.1781432
17798.9071946
17806.7895388
17814.8535136
17823.151613
17831.5863
17840.0460627
17848.4739821
17856.8904807
17865.2890035
17873.5492
17881.590708
17888.4482083
17895.7346682
17902.511698
17908.7758836
17914.4697932
17919.5115588
17923.7919477
17927.2662848
17929.9313889
17931.8062338
17937.0554206
226.836296594
226.836296594
226.836296594
226.836296594
226.836296594
226.836296594
226.836296594
226.836296594
226.836296594
226.836296594
226.836296594
226.836296594
226.836296594
226.836296594
226.836296594
226.836296594
226.836296595
226.83629664
226.836299229
226.836442926
226.844521872
226.951554911
1421.23469508
5186.92785438
9989.77655006
13223.9502336
15179.9902886
16485.2598177
17215.7247678
17527.979626
17627.9747241
17657.3784766
17669.196947
17677.3570939
17684.6525559
17691.6595383
17698.5255721
17705.3354643
17712.102237
17718.8701419
17725.6429787
17733.2725445
17740.2008082
17747.3098557
17754.5884015
17762.031803
17769.664176
17777.4832275
17785.4561462
17793.584402
17801.9093094
17809.5966625
17818.2222492
17826.8241229
17835.3595445
17843.8261047
17852.2399166
17860.4975997
17868.4736575
17876.0891934
17883.2639892
17889.9782551
17896.1742831
17901.7694401
17906.6918907
17910.8890515
17914.2891398
17916.8829671
17918.6818351
17923.4914514
226.836296594
226.836296594
226.836296594
226.836296594
226.836296594
226.836296594
226.836296594
226.836296594
226.836296594
226.836296594
226.836296594
226.836296594
226.836296594
226.836296594
226.836296594
226.836296594
226.836296596
226.836296713
226.836303566
226.836692537
226.853714797
250.980119206
2408.93518766
5789.41784071
11197.2116224
13825.4923657
15582.6428811
16712.5929109
17302.2497559
17533.6842805
17604.1338889
17626.9643988
17638.101082
17646.8682105
17655.0183179
17662.9002948
17670.5988616
17678.1549131
17685.6115652
17693.0254111
17700.4558273
17707.9598356
17715.5382423
17723.2420499
17731.0956416
17739.0957714
17747.2696786
17755.5833548
17764.0341437
17772.6299772
17781.3489529
17790.1825932
17799.0552829
17807.9883787
17816.8878026
17825.6873498
17834.3298328
17842.7588913
17850.8754487
17858.582423
17865.8692117
17872.6675005
17878.9102472
17884.587008
17888.7692408
17893.0069159
17896.3855018
17898.9704754
17900.760264
17906.2561473
226.836296593
226.836296593
226.836296593
226.836296593
226.836296593
226.836296593
226.836296593
226.836296593
226.836296593
226.836296593
226.836296593
226.836296593
226.836296593
226.836296593
226.836296593
226.836296593
226.8362966
226.836296978
226.83631826
226.837527828
226.865895007
388.671202591
2912.9655527
6379.64861791
11988.0795162
14308.6429523
15892.3048408
16865.1174351
17342.330338
17514.9555718
17566.7429723
17586.2220201
17597.5940137
17607.2948055
17616.4783665
17625.3672388
17634.0417961
17642.5537827
17650.9459485
17659.3216509
17667.6651539
17676.0038651
17684.3662105
17692.8012216
17701.392772
17710.0996194
17718.9697588
17727.9837417
17737.1038381
17746.3165674
17755.6198676
17764.9996663
17774.3915684
17783.7696015
17793.1254008
17801.5761535
17810.6326412
17819.396569
17827.7953927
17835.7920307
17843.3073758
17850.2903944
17856.6985347
17862.4443667
17867.4775771
17871.7477782
17875.2039056
17877.8154645
17879.5830934
17883.9223122
226.836296593
226.836296593
226.836296593
226.836296593
226.836296593
226.836296593
226.836296593
226.836296593
226.836296593
226.836296593
226.836296593
226.836296593
226.836296593
226.836296593
226.836296593
226.836296593
226.836296612
226.836297693
226.836358006
226.839777425
226.897556072
725.481534578
4366.20869656
7889.57970033
12608.1130248
14708.8295344
16132.7690672
16967.8293304
17349.0812499
17479.5223242
17519.843219
17537.4699369
17549.3497507
17560.055674
17570.3503307
17580.3689483
17590.1532234
17599.7559655
17609.2289224
17618.6286577
17627.9668347
17637.2843114
17646.6101465
17656.0528851
17665.5540951
17675.1030678
17684.7401311
17694.5512564
17703.6444713
17713.6817512
17723.7181972
17733.7379086
17743.7499103
17753.7277084
17763.5725339
17773.2630118
17782.7012488
17791.8501995
17800.6461967
17809.0765972
17816.9502611
17824.173024
17830.7243848
17836.6423757
17841.0543891
17845.5197129
17849.1190246
17851.8229558
17853.6064529
17857.7821182
226.836296593
226.836296593
226.836296593
226.836296593
226.836296593
226.836296593
226.836296593
226.836296593
226.836296593
226.836296593
226.836296593
226.836296593
226.836296593
226.836296593
226.836296593
226.836296594
226.836296639
226.836299266
226.836444522
226.844564855
226.952457491
1406.06604919
5166.29936528
9869.5109676
13129.0017954
15049.5189474
16320.2786803
17030.412073
17333.1052016
17433.0321738
17465.079231
17481.3528981
17494.0430354
17506.5932001
17517.9853823
17529.0887591
17539.9435878
17550.684503
17560.5042669
17571.062923
17581.4931296
17591.8791483
17602.2558143
17612.6674974
17623.1116076
17633.6083704
17644.1978002
17654.8640938
17665.602089
17676.3529327
17687.0966635
17697.8562055
17708.6328411
17719.2949981
17729.8216893
17739.3010116
17749.2557751
17758.8965019
17768.1228606
17776.9077504
17785.1167896
17792.6894616
17799.547212
17805.6457385
17811.0037201
17815.5463486
17819.2384453
17822.0387546
17823.9225439
17828.066721
226.836296593
226.836296593
226.836296593
226.836296593
226.836296593
226.836296593
226.836296593
226.836296593
226.836296593
226.836296593
226.836296593
226.836296593
226.836296593
226.836296593
226.836296593
226.836296594
226.836296687
226.836301961
226.836591337
226.852116851
232.378245934
2261.93095761
5643.39825238
10876.3757916
13589.5065072
15340.2047067
16464.9403484
17060.0580342
17299.074972
17375.7520225
17403.1467738
17419.5094512
17433.3095107
17446.3536644
17458.9990095
17471.3653321
17483.4763719
17495.3715204
17507.1643601
17518.7906745
17530.2863811
17541.7502524
17553.1913145
17564.6979434
17576.184631
17587.6570396
17599.2208242
17610.8174752
17622.4694336
17633.3615665
17645.0008749
17656.5175518
17667.9777881
17679.3344582
17690.4722117
17701.3269124
17711.8736054
17722.0294592
17731.7536036
17741.0028559
17748.8098791
17756.7622126
17763.9182679
17770.2781499
17775.8159928
17780.4866308
17784.2547608
17787.1102286
17789.0499667
17793.1404599
226.836296593
226.836296593
226.836296593
226.836296593
226.836296593
226.836296593
226.836296593
226.836296593
226.836296593
226.836296593
226.836296593
226.836296593
226.836296593
226.836296593
226.836296593
226.836296598
226.836296879
226.836312702
226.837204505
226.861700793
332.534393912
2737.83318472
6127.1826127
11625.6793427
14002.6601981
15589.7089834
16573.315444
17064.6206481
17250.6265537
17310.4126468
17335.1357056
17352.0742881
17367.2021545
17381.5876992
17395.5346464
17409.2154204
17422.5995956
17435.7451386
17448.6875893
17461.5378804
17474.251724
17486.8698421
17499.4940264
17511.2529518
17523.8381217
17536.3357086
17548.9094959
17561.4730752
17573.9652261
17586.4650774
17598.9134263
17611.2701298
17623.5847685
17634.8510021
17646.7154032
17658.1970965
17669.3078113
17679.9950336
17690.2244604
17699.8847488
17708.8518668
17717.0619264
17724.52907
17731.2073916
17737.0911748
17741.1161835
17745.1248177
17748.0721177
17750.015402
17753.9082819
226.836296593
226.836296593
226.836296593
226.836296593
226.836296593
226.836296593
226.836296593
226.836296593
226.836296593
226.836296593
226.836296593
226.836296593
226.836296593
226.836296593
226.836296593
226.836296605
226.836297337
226.836338069
226.838642733
226.88200074
559.798356376
3534.70734246
6873.93070019
12250.2481091
14381.2356198
15806.3287992
16650.2852062
17047.4702271
17190.4239738
17238.4259335
17261.7432898
17279.6455782
17296.0753535
17311.9380599
17327.2867689
17342.2825
17357.04693
17371.5404613
17385.0242637
17399.0994597
17413.0622879
17426.8349397
17440.5328663
17454.2107921
17467.7710021
17481.3489109
17494.981932
17507.7301474
17521.2143467
17534.6321105
17547.9379747
17561.092111
17574.1118441
17586.9002569
17599.3983752
17611.5623122
17622.5055605
17633.8195257
17644.5356448
17654.603188
17663.935201
17672.5517502
17680.3508692
17687.2771223
17693.2901851
17698.3380919
17702.3788865
17705.4080798
17707.4188525
17711.2372676
226.836296592
226.836296592
226.836296592
226.836296592
226.836296592
226.836296592
226.836296592
226.836296592
226.836296592
226.836296592
226.836296592
226.836296592
226.836296592
226.836296592
226.836296593
226.836296629
226.836298711
226.836413203
226.842777378
226.93345126
1131.57895132
4943.15079239
9123.13898362
12809.2821977
14725.5610566
15985.9635591
16699.5951789
17013.5904013
17121.4628327
17161.1580111
17183.753197
17202.6915443
17220.5499346
17237.8321106
17253.9648127
17270.4288232
17286.4836163
17302.2718106
17317.8177362
17333.1312848
17348.3003742
17363.3176373
17377.4908981
17392.2728273
17406.9454759
17421.5999069
17436.1343191
17450.59363
17465.0482954
17479.4209873
17492.7948162
17506.8484571
17520.6570597
17534.1763609
17547.3628585
17560.1477893
17572.4561242
17584.2843532
17594.663381
17605.2525771
17615.0582792
17624.0814326
17632.1831106
17639.3282092
17645.5060991
17650.7193045
17654.9120572
17658.0489741
17660.1125763
17663.7977384
226.836296592
226.836296592
226.836296592
226.836296592
226.836296592
226.836296592
226.836296592
226.836296592
226.836296592
226.836296592
226.836296592
226.836296592
226.836296592
226.836296592
226.836296594
226.836296682
226.836301623
226.836568874
226.850918106
227.020939656
2098.05116329
5512.82521452
10508.167473
13313.0140834
15033.0014504
16131.6690653
16719.5861376
16962.6617625
17044.4436251
17079.0617669
17101.7779983
17121.3266096
17140.5777738
17159.3241015
17177.5141925
17195.3374112
17212.8191253
17229.9690259
17246.040771
17262.6980017
17279.0886608
17295.3293697
17311.3442764
17327.2086143
17343.0770489
17358.0245503
17373.6833496
17389.1713357
17404.4861615
17419.6974002
17434.7652101
17449.5633864
17463.3406519
17477.6521332
17491.5245269
17504.9290444
17517.840362
17530.1903443
17541.9531159
17552.063185
17562.3328165
17571.6787388
17580.0485598
17587.4395843
17593.8725351
17599.2776435
17603.5993432
17606.8127341
17608.9165411
17612.4737534
226.836296592
226.836296592
226.836296592
226.836296592
226.836296592
226.836296592
226.836296592
226.836296592
226.836296592
226.836296592
226.836296592
226.836296592
226.836296592
226.836296592
226.836296597
226.836296883
226.836312751
226.837193723
226.861989498
325.343349202
2702.42901492
6047.99085255
11412.492406
13771.2383606
15301.5612522
16241.1844899
16714.511153
16897.3393522
16961.1473091
16991.9805582
17015.5525231
17037.0883006
17057.8871509
17078.0690335
17097.8219301
17116.2742625
17135.1263326
17153.5823096
17171.676136
17189.5829277
17207.1860883
17223.837258
17241.0767898
17258.1792705
17275.0545469
17291.7867038
17307.6719498
17324.1838636
17340.4253083
17356.5451966
17372.378611
17387.9678796
17403.3710299
17417.4997317
17432.0675281
17446.0576769
17459.5265244
17472.3655593
17484.556287
17496.1173938
17505.8156963
17515.4667919
17524.1005587
17531.7598019
17538.4649469
17544.0658193
17548.510193
17551.7700289
17553.8675152
17557.2423283
226.836296592
226.836296592
226.836296592
226.836296592
226.836296592
226.836296592
226.836296592
226.836296592
226.836296592
226.836296592
226.836296592
226.836296592
226.836296592
226.836296593
226.836296608
226.836297503
226.836346841
226.839102294
226.888702776
612.111409607
3744.74281343
6867.83846073
12151.0712704
14196.6122761
15534.2696845
16317.7629252
16685.7006109
16822.0326019
16872.4772819
16901.9175013
16926.5474728
16949.7305201
16971.4228144
16993.1332808
17014.2124659
17034.8517776
17055.0606787
17074.1484586
17093.5520432
17112.6983201
17131.5244876
17150.1700468
17167.747992
17185.928539
17203.8645394
17221.6058576
17239.2964063
17255.9631582
17273.143656
17290.0808038
17306.7675383
17323.1343474
17339.1969175
17354.1030743
17369.2195215
17383.8756182
17397.8680846
17411.2062952
17423.8428957
17435.7002791
17445.8260021
17455.8745095
17464.7898792
17472.6689188
17479.5120529
17485.2319016
17489.7762806
17493.118299
17495.2509467
17498.4677281
226.836296592
226.836296592
226.836296592
226.836296592
226.836296592
226.836296592
226.836296592
226.836296592
226.836296592
226.836296592
226.836296592
226.836296592
226.836296592
226.836296593
226.836296647
226.836299672
226.836462953
226.845293079
226.961474965
1409.1871661
5119.93773212
9419.89554808
12789.4684359
14577.0204807
15726.2114556
16361.7844434
16638.8374184
16737.8963327
16780.0642938
16809.0769489
16834.9069193
16858.9218701
16882.7289386
16906.0115533
16927.9511027
16950.030947
16971.5445272
16992.6597865
17013.3966528
17033.0205449
17053.0178217
17072.8198325
17092.3064625
17110.7953673
17129.8205436
17148.5830343
17167.1831852
17185.5023144
17202.7975728
17220.5962146
17238.0808722
17255.2769668
17272.0964971
17287.523545
17303.3148105
17318.4883417
17332.9870579
17346.771616
17359.808426
17372.1358459
17382.4916017
17392.7980595
17402.0308601
17410.1875658
17417.229327
17423.0788369
17427.696448
17431.0768948
17433.2328568
17436.2985197
226.836296592
226.836296592
226.836296592
226.836296592
226.836296592
226.836296592
226.836296592
226.836296592
226.836296592
226.836296592
226.836296592
226.836296592
226.836296592
226.836296595
226.836296772
226.836306637
226.836847689
226.857195409
266.459847362
2462.0974327
5761.43584297
10832.3899834
13357.0209215
14908.9107778
15872.6273046
16371.508826
16573.4299649
16647.0413275
16684.5540026
16713.3020136
16740.4817628
16766.6283476
16791.3427302
16815.9902062
16839.9836102
16863.4372824
16885.650942
16908.070952
16930.101607
16951.6556153
16972.1417724
16993.0294812
17013.5714614
17033.9294825
17053.1331851
17072.9196235
17092.3982445
17111.6698026
17129.7463908
17148.4033368
17166.6179836
17184.4102407
17201.8687531
17218.0436065
17234.3833675
17250.0982914
17265.0781527
17279.345557
17292.8573154
17304.450952
17316.0179045
17326.5480238
17336.0381029
17344.4361356
17351.6319098
17357.580512
17362.2663847
17365.700266
17367.900528
17370.8366464
226.836296592
226.836296592
226.836296592
226.836296592
226.836296592
226.836296592
226.836296592
226.836296592
226.836296592
226.836296592
226.836296592
226.836296592
226.836296592
226.836296605
226.836297321
226.836335963
226.83843671
226.879510445
495.691369831
3175.02364539
6498.4812307
11788.7949172
13866.246154
15190.3540544
15973.7937797
16349.7886179
16493.3878834
16550.437568
16585.8536958
16616.1616721
16644.901694
16671.8901034
16698.7572799
16724.1962885
16749.5582132
16774.2873423
16798.4801459
16821.4619722
16844.6512653
16867.430007
16889.0278993
16911.0439736
16932.5929168
16953.912208
16974.125276
16994.8586999
17015.1943319
17035.3065733
17054.203405
17073.5379792
17092.4419334
17111.0070296
17128.1880266
17145.6759265
17162.5869172
17178.8125759
17194.2811741
17208.9727034
17221.8146059
17234.7296211
17246.5162594
17257.2518001
17266.9243917
17275.5075427
17282.8625651
17289.0042427
17292.8536342
17296.3685615
17298.5652536
17301.3372532
226.836296592
226.836296592
226.836296592
226.836296592
226.836296592
226.836296592
226.836296592
226.836296592
226.836296592
226.836296592
226.836296592
226.836296592
226.836296593
226.836296648
226.836299705
226.836462646
226.84513937
226.960426965
1343.71688501
5048.80930829
8998.81421848
12565.2093062
14313.0871948
15419.035356
16031.7282926
16302.5376264
16403.8570689
16451.115324
16485.8713699
16516.7738782
16546.9602573
16575.5280895
16603.8766187
16631.4115806
16657.4436271
16683.5402237
16708.9109654
16733.1208446
16757.3947547
16781.3521778
16803.9693407
16827.0011977
16849.6267527
16871.9040915
16893.0206033
16914.563889
16935.8256959
16955.8901555
16976.3570375
16996.4011259
17015.9293712
17035.1316327
17052.8566885
17070.8457972
17088.167089
17104.8798039
17119.8808734
17134.9631793
17149.04506
17162.1268272
17174.1757635
17185.0920347
17195.0134923
17202.7418048
17210.2666789
17216.4223597
17221.2516121
17224.7567127
17226.9548063
17229.5100917
226.836296592
226.836296592
226.836296592
226.836296592
226.836296592
226.836296592
226.836296592
226.836296592
226.836296592
226.836296592
226.836296592
226.836296592
226.836296596
226.836296839
226.836310068
226.837021999
226.860266346
287.814581915
2543.05750522
5807.85902968
10789.7134911
13224.0018836
14689.3191915
15586.4535082
16046.6397207
16234.0095197
16307.5684598
16349.7531423
16384.1762742
16417.1141616
16448.1103173
16478.7533432
16507.8007366
16536.6173087
16564.6866648
16591.3271989
16617.9791807
16643.3227105
16668.7534643
16693.6687355
16717.3697075
16741.3425394
16764.8705745
16787.2328349
16810.0332944
16832.3185433
16854.4029835
16875.1041374
16896.2614144
16916.9808598
16937.2514487
16956.0260817
16975.2024577
16993.6420216
17011.4354651
17027.4935361
17043.768343
17059.1005719
17073.4880553
17086.8523526
17099.2123983
17109.3818603
17119.3768533
17128.1472804
17135.6732247
17141.8897852
17146.7657266
17150.2914833
17152.4997726
17154.8506842
226.836296592
226.836296592
226.836296592
226.836296592
226.836296592
226.836296592
226.836296592
226.836296592
226.836296592
226.836296592
226.836296592
226.836296592
226.836296615
226.836297844
226.836363579
226.839896301
226.899843292
675.40896625
3930.79680112
6766.50254759
11862.6859691
13789.9970667
14997.4702419
15693.3167494
16021.5970375
16149.0221175
16206.2225405
16246.4490725
16281.9088294
16316.2245069
16348.5830373
16380.6336275
16410.9949336
16441.036839
16470.2802969
16498.082838
16525.8254122
16552.2101044
16578.7581274
16604.6567066
16629.3063488
16654.1599372
16678.7076672
16701.8386798
16725.3530757
16748.4718187
16770.3207545
16792.5495804
16814.2674336
16835.6239703
16855.4921785
16875.710347
16895.3063194
16914.2164186
16931.4258445
16948.753446
16965.2540953
16980.8399662
16995.5210071
17008.116561
17020.5834384
17031.8285436
17041.878109
17050.7446884
17058.3348964
17064.6757993
17068.5768751
17072.1897455
17074.3760058
17076.51991
226.836296592
226.836296592
226.836296592
226.836296592
226.836296592
226.836296592
226.836296592
226.836296592
226.836296592
226.836296592
226.836296592
226.836296594
226.836296707
226.836302754
226.836615268
226.852439353
227.037144459
2045.20627766
5398.65232887
9777.91310063
12700.3202912
14265.3716209
15229.2590859
15745.1001131
15966.412869
16054.2469843
16103.2731471
16142.5391458
16179.8244312
16214.8795879
16249.3809135
16281.9118171
16313.4710505
16344.7956083
16375.1579137
16404.0634937
16432.8777709
16460.2417341
16487.7300901
16513.8387067
16540.059824
16565.793127
16590.2002864
16615.0052264
16639.3111008
16662.1599582
16685.4953834
16708.3532462
16729.8061656
16751.5326519
16772.7377316
16793.4464857
16812.4559277
16831.7075725
16850.1014353
16867.7916982
16883.5166404
16899.3413927
16914.0917047
16927.8063773
16940.4365268
16951.9059134
16961.0547253
16969.975938
16977.5553803
16983.8070038
16988.734533
16992.2940989
16994.4913729
16996.4386405
226.836296592
226.836296592
226.836296592
226.836296592
226.836296592
226.836296592
226.836296592
226.836296592
226.836296592
226.836296592
226.836296592
226.836296606
226.83629735
226.836336274
226.838375346
226.879347572
461.237216389
3019.3740502
6267.80944782
11326.2719842
13385.3531357
14644.5258509
15381.9642706
15743.2169554
15888.3909156
15953.7033632
15998.6141132
16038.5691562
16077.1122095
16113.4663284
16149.2586031
16183.1335602
16215.8372145
16248.2744939
16279.0001802
16309.5247814
16338.5503754
16367.5424716
16395.8744728
16422.7558963
16449.8390194
16475.5533449
16501.4869364
16526.9132112
16550.9153582
16575.3241325
16599.2731335
16621.6613437
16644.4511584
16666.7105456
16687.4158073
16708.4000085
16728.6136704
16748.1463985
16765.9158864
16783.7314032
16800.6514339
16816.5743805
16831.5424603
16844.2944119
16857.0054003
16868.3766717
16878.6250379
16887.5404259
16895.108261
16901.3771496
16906.3828041
16908.872847
16911.1093907
16912.8312035
226.836296592
226.836296592
226.836296592
226.836296592
226.836296592
226.836296592
226.836296592
226.836296592
226.836296592
226.836296592
226.836296594
226.836296683
226.836301435
226.836545607
226.848894702
227.001038788
1645.88982699
5176.92615318
8945.7585588
12346.6233309
13946.0180948
14928.2397722
15462.6613656
15699.0404969
15795.5337711
15849.975333
15893.9767175
15934.9178482
15974.7535908
16012.4021039
16048.6920865
16084.2993309
16118.177993
16151.622655
16183.2894457
16214.8074644
16244.6587094
16274.5552975
16302.8294485
16331.2113938
16358.1391983
16385.2369474
16411.8837909
16436.9883386
16462.3984927
16487.3409625
16510.7899679
16534.566803
16557.787959
16579.4087484
16601.3488726
16622.6223589
16642.1510647
16661.8868463
16680.7360048
16698.6967506
16715.7801506
16730.6993273
16745.6828564
16759.5631209
16772.251402
16783.7934013
16792.9434231
16801.8162362
16809.2945148
16815.5488591
16820.4372652
16823.965985
16826.1250607
16827.6473588
226.836296592
226.836296592
226.836296592
226.836296592
226.836296592
226.836296592
226.836296592
226.836296592
226.836296592
226.836296592
226.836296605
226.836297308
226.836333595
226.838203533
226.87734361
428.089221841
2916.19449665
6132.88557728
11037.362721
13135.6104973
14382.9491073
15114.283983
15476.0225815
15626.0278292
15696.2009114
15745.8705803
15790.2915091
15832.3922001
15873.2987423
15912.0069266
15949.3120594
15986.0751366
16020.737946
16054.3600305
16087.5916011
16119.1601136
16150.6115164
16180.3491484
16210.1110247
16238.3203048
16266.6248415
16294.3700939
16320.5357827
16347.1282995
16372.0711003
16397.4073378
16422.1079425
16445.2840426
16468.7058102
16491.5378445
16513.7376176
16534.1213015
16554.8925268
16574.8223306
16592.8060374
16610.8737091
16627.8884297
16643.931351
16658.9835614
16671.7331944
16684.436187
16695.8453
16705.9818056
16714.8201788
16722.3189744
16728.5538301
16732.2535739
16735.7957309
16737.9094661
16739.204364
226.836296592
226.836296592
226.836296592
226.836296592
226.836296592
226.836296592
226.836296592
226.836296592
226.836296592
226.836296594
226.836296697
226.836302116
226.836576025
226.850145654
227.014183161
1722.00213093
5183.77817583
8721.21554142
12196.4550087
13754.7404363
14697.1430551
15209.5948771
15438.3640471
15535.8406558
15593.6493806
15642.2480646
15687.5890341
15730.7925765
15772.1700876
15812.5626725
15850.7856723
15887.6195929
15923.8797207
15958.1262943
15992.1898682
16024.3356222
16055.6589255
16086.810929
16116.3075014
16145.8691555
16174.7598321
16202.0549851
16229.6410922
16255.5785955
16281.7996988
16307.4466254
16331.4653249
16355.8557249
16379.5944627
16401.5396987
16423.8815654
16445.4311954
16465.1866602
16485.0760876
16504.0897557
16522.2052768
16538.1927218
16554.1764217
16569.0822328
16582.8881588
16595.5713777
16605.7121089
16615.8328215
16624.5990713
16632.0405874
16638.166671
16642.9404268
16646.3894861
16648.5064653
16649.6006375
226.836296592
226.836296592
226.836296592
226.836296592
226.836296592
226.836296592
226.836296592
226.836296592
226.836296592
226.836296612
226.836297635
226.836349451
226.838963619
226.887520582
506.907487639
3089.91540786
6236.08919856
11047.87828
13046.8556276
14217.4755719
14894.5805878
15226.0388865
15366.3974294
15437.7551167
15491.3924446
15540.1732647
15586.3994232
15630.5369355
15672.8398901
15713.4447466
15753.1870945
15790.6739736
15826.8403752
15862.6117496
15896.3063762
15929.8624211
15961.6249817
15992.4833182
16023.268392
16052.3939616
16081.6196509
16110.2275223
16137.08744
16164.3486605
16189.8830272
16215.7459765
16241.0114892
16264.3865964
16288.2129478
16311.3618808
16332.620826
16354.2152118
16375.0161209
16393.8438652
16412.8388048
16430.7391088
16447.7524112
16463.7653292
16477.354447
16491.1095022
16503.5754706
16514.7812723
16524.7623958
16533.5246615
16539.5463112
16545.6402314
16550.3301216
16553.6964244
16555.7421199
16556.6076314
226.836296592
226.836296592
226.836296592
226.836296592
226.836296592
226.836296592
226.836296592
226.836296592
226.836296595
226.836296778
226.836306146
226.836779668
226.857720743
242.145517592
2222.87283504
5436.13080146
9306.6982658
12258.108116
13684.0170905
14533.8190451
14984.5233755
15185.205435
15276.6705108
15337.172963
15389.8729518
15439.3104011
15486.2133251
15531.8497681
15574.8972615
15616.1515571
15655.7686009
15693.985004
15731.4678844
15766.8428367
15801.9124006
15835.0770996
15867.1703624
15899.2481603
15929.4928458
15959.8054354
15988.3761094
16017.1082959
16045.2480747
16071.5826555
16098.2401092
16123.2333233
16148.4942732
16173.1221731
16195.892369
16219.0125641
16241.3992967
16261.7218064
16282.4961003
16302.2145343
16321.1491238
16337.8015575
16354.6132018
16370.3592796
16385.1662747
16397.4049628
16409.7331927
16420.7702862
16430.562639
16439.0953413
16446.366965
16452.3799632
16455.6527666
16459.0095082
16460.9985815
16461.6263255
226.836296592
226.836296592
226.836296592
226.836296592
226.836296592
226.836296592
226.836296592
226.836296593
226.836296641
226.836299144
226.836423874
226.842548758
226.934040724
879.295061048
4350.35368728
6648.43029543
11359.2536537
13106.0521675
14133.3588037
14713.0525692
14989.4957354
15110.6972238
15180.7527226
15238.0722132
15291.0197863
15341.1070517
15388.810411
15434.3321534
15477.8896088
15519.6369973
15560.4311084
15598.9892568
15636.1181807
15672.6918317
15707.2469215
15740.7152636
15773.982302
15805.3140601
15836.7315653
15866.1797787
15895.9600655
15923.8353063
15951.9998199
15978.404763
16005.1380146
16031.1419576
16055.3437448
16079.8930842
16103.7072188
16125.5611637
16147.8144384
16169.2813225
16188.5646118
16208.2495998
16226.8277201
16244.5722177
16259.8918408
16275.5229295
16289.8792664
16303.2423485
16315.3769049
16324.9409223
16334.5958201
16342.9028138