/*--------------------------------*- C++ -*----------------------------------*\
| =========                 |                                                 |
| \\      /  F ield         | foam-extend: Open Source CFD                    |
|  \\    /   O peration     | Version:     4.1                                |
|   \\  /    A nd           | Web:         http://www.foam-extend.org         |
|    \\/     M anipulation  |                                                 |
\*---------------------------------------------------------------------------*/
FoamFile
{
    version     2.0;
    format      ascii;
    class       volVectorField;
    location    "0.0007";
    object      U;
}
// * * * * * * * * * * * * * * * * * * * * * * * * * * * * * * * * * * * * * //

dimensions      [0 1 -1 0 0 0 0];

internalField   nonuniform List<vector> 
8400
(
(16999.9999925 5.5391668643e-09 5.64070013003e-11)
(16999.9999925 5.62643008063e-09 5.62219930695e-11)
(16999.9999925 5.71201297713e-09 5.60372764191e-11)
(16999.9999926 5.79594105801e-09 5.58563763187e-11)
(16999.9999926 5.87823886976e-09 5.56880923771e-11)
(16999.9999926 5.95893253795e-09 5.55206437657e-11)
(16999.9999926 6.0380467405e-09 5.53570223197e-11)
(16999.9999926 6.11560726271e-09 5.51980819337e-11)
(16999.9999926 6.19163930444e-09 5.5042733881e-11)
(16999.9999926 6.26616708925e-09 5.48907461567e-11)
(16999.9999926 6.3392155024e-09 5.4743973397e-11)
(16999.9999926 6.41080942082e-09 5.46004038627e-11)
(16999.9999926 6.48097365389e-09 5.44603369136e-11)
(16999.9999927 6.54973203786e-09 5.43199074483e-11)
(16999.9999927 6.61710861887e-09 5.41887493102e-11)
(16999.9999927 6.68313295327e-09 5.39390864949e-11)
(16999.9999927 6.74816041669e-09 4.68925207663e-11)
(16999.9999927 6.83127820393e-09 -3.46370629788e-10)
(16999.9999926 8.00894516319e-09 -2.23813677302e-08)
(16999.9999868 6.52442984794e-08 -1.15904697326e-06)
(16999.9996401 3.27782443212e-06 -6.38886518199e-05)
(16999.980501 1.67494678987e-05 -0.000743992887111)
(16998.3120432 0.00466584992264 -0.00710767391326)
(16955.1112214 -0.726236542878 -0.0616422896499)
(16510.6342161 -6.88424934712 -0.113147320287)
(14406.2584305 -27.2859683367 -0.027907882823)
(10650.5247837 -47.8149089599 0.0398421862535)
(6904.35785222 -56.1231058006 0.0371994992395)
(4086.69883681 -45.6614181603 0.0246428613955)
(2368.1901407 -18.6303489314 0.0146311068388)
(1525.60046679 17.9120072621 0.00781361545301)
(1204.56196853 56.2563470877 0.0039885684713)
(1099.30572989 92.1719412979 0.00236280197716)
(1057.04181019 124.658218711 0.00180478399111)
(1029.02984379 153.837768911 0.00160700579359)
(1003.08535192 180.067486758 0.00151054753291)
(976.570507619 203.708910723 0.00144199128669)
(949.073605057 225.083536947 0.00138179171695)
(920.654042584 244.470537943 0.0013245822561)
(891.456720563 262.111480757 0.00126961586696)
(861.628676909 278.216298733 0.00121634084707)
(831.307422949 292.962486339 0.00116272411519)
(800.686956309 306.526831957 0.00110829155423)
(769.698544206 319.040543127 0.00105259403234)
(738.424391937 330.645551128 0.000995293299449)
(707.123652212 341.444676473 0.000938147685611)
(675.79513684 351.535419681 0.000881500692111)
(644.484224926 361.003813329 0.000824168981972)
(613.245651331 369.92662527 0.000765007087276)
(582.140272901 378.37093563 0.00070256477396)
(551.215318273 386.393908485 0.000635620079691)
(520.477841183 394.042306432 0.000563534132105)
(489.909616745 401.353320848 0.000485545309037)
(459.504626054 408.356847825 0.000399625150297)
(429.304584321 415.076123624 0.000302236975959)
(399.39669159 421.526158181 0.000189186149584)
(369.836497709 427.712413418 5.54291357836e-05)
(340.606854721 433.631314068 -0.00010232905337)
(311.728104993 439.277864294 -0.000286621830105)
(283.018313853 444.62029433 -0.000508610785057)
(254.540589801 449.655493241 -0.00078334244996)
(226.549702499 454.351674241 -0.00112260674824)
(198.99670354 458.678819051 -0.00154173525036)
(171.855438776 462.601379027 -0.00206122008991)
(145.096302524 466.081654551 -0.00270659689795)
(118.721629741 469.082934629 -0.00351197135978)
(92.7678193974 471.572508569 -0.0045213492291)
(67.2752048983 473.520555874 -0.00578890580723)
(42.306824052 474.899053367 -0.00734685105041)
(30.0344314033 475.668110194 -0.00877780359118)
(16999.9999947 3.7381415253e-09 1.22107430503e-12)
(16999.9999947 3.79802586379e-09 1.33925327078e-12)
(16999.9999947 3.85678634936e-09 1.45517918964e-12)
(16999.9999947 3.91443946134e-09 1.5667489459e-12)
(16999.9999947 3.9710018172e-09 1.67644208441e-12)
(16999.9999947 4.02648877563e-09 1.78335200934e-12)
(16999.9999948 4.08091620839e-09 1.8864528305e-12)
(16999.9999948 4.13430000938e-09 1.9872446868e-12)
(16999.9999948 4.18665589345e-09 2.08463793075e-12)
(16999.9999948 4.23799992136e-09 2.17984759083e-12)
(16999.9999948 4.2883473026e-09 2.27268175892e-12)
(16999.9999948 4.33771361045e-09 2.36297513466e-12)
(16999.9999948 4.38611386186e-09 2.45163020359e-12)
(16999.9999948 4.43356341805e-09 2.53685844448e-12)
(16999.9999948 4.48007883748e-09 2.61766839456e-12)
(16999.9999948 4.52574395276e-09 2.60572426012e-12)
(16999.9999948 4.57459542244e-09 -2.67496238993e-12)
(16999.9999948 4.86056131397e-09 -3.09343232266e-10)
(16999.9999943 1.89166540352e-08 -1.716383512e-08)
(16999.9999642 8.1531042736e-07 -9.25760900909e-07)
(16999.9981486 4.73282919665e-05 -3.46828079279e-05)
(16999.8994885 0.00236249452916 -0.000377023592473)
(16990.4321446 0.234272814953 -0.00516443541788)
(16868.6018433 1.4416543947 -0.0292043421989)
(15894.3413954 12.9858049811 -0.0379538134036)
(13002.7445387 44.6863051037 -0.0061827757653)
(9081.39032711 95.7615819001 0.0102370257738)
(5609.83359679 148.345357162 0.00903784649687)
(3211.78990259 195.448561652 0.00631699858781)
(1861.00414765 235.676148625 0.00404096313487)
(1259.43232321 269.065923087 0.00243900636349)
(1046.39563561 296.934243133 0.001561765213)
(970.411622517 321.519652519 0.00120875131678)
(930.332946657 344.116144732 0.00109171715992)
(898.4394373 365.167721358 0.00104711949552)
(868.445890432 384.841479267 0.00102010321054)
(839.0001101 403.244401936 0.0009963330268)
(809.81756482 420.467037492 0.000972071924656)
(780.8343253 436.611869923 0.000946558808764)
(752.037476039 451.760797398 0.00092003930787)
(723.372950424 465.995749335 0.000892459771164)
(695.025484973 479.39029946 0.000863663857097)
(667.014711887 492.01103582 0.000833523054693)
(639.176330597 503.931453802 0.000801544088081)
(611.587667518 515.217679062 0.000767542548862)
(584.264717263 525.924284429 0.000731781372279)
(557.215642536 536.102819793 0.000694192549088)
(530.469079963 545.79932962 0.000654397734243)
(504.067515645 555.054771216 0.000611900983812)
(478.037776739 563.905325157 0.000566073931828)
(452.367402033 572.381925439 0.000516300958557)
(427.000280485 580.510189757 0.000462016147838)
(401.903005734 588.310251629 0.000402512062276)
(377.106502363 595.795753536 0.000336684686439)
(352.681036364 602.974838958 0.000263068747922)
(328.682101251 609.849450833 0.000180193289605)
(305.08940175 616.416328647 8.68436356432e-05)
(281.926754412 622.664616749 -1.78849224825e-05)
(258.968836966 628.585589658 -0.000135103835938)
(236.250362499 634.16498226 -0.00026653558098)
(214.056801661 639.377450258 -0.000413468517328)
(192.335482089 644.202906928 -0.000576154790592)
(171.015287147 648.61962918 -0.000753955332388)
(150.001210855 652.603243825 -0.000944717902778)
(129.268340671 656.126547793 -0.00114434930656)
(108.895730134 659.163705656 -0.00134672565216)
(88.9794865651 661.693260168 -0.00154271910083)
(69.5372606331 663.700493359 -0.00171852799955)
(50.5496509613 665.176904301 -0.00184667991425)
(41.2616367992 665.962567834 -0.00185461116172)
(16999.999996 2.2478922909e-09 -1.84014244128e-12)
(16999.999996 2.28526883729e-09 -1.82288948023e-12)
(16999.999996 2.32198077843e-09 -1.80555318185e-12)
(16999.999996 2.3580362332e-09 -1.78866672454e-12)
(16999.999996 2.39344335333e-09 -1.7717923835e-12)
(16999.999996 2.42821022747e-09 -1.75486799998e-12)
(16999.999996 2.46234454808e-09 -1.73794834358e-12)
(16999.999996 2.49585477331e-09 -1.72029668404e-12)
(16999.999996 2.52874854213e-09 -1.70337449332e-12)
(16999.999996 2.56103448641e-09 -1.68675264257e-12)
(16999.999996 2.59272079019e-09 -1.66895355799e-12)
(16999.999996 2.62381539939e-09 -1.65188051994e-12)
(16999.999996 2.65432661906e-09 -1.63544167605e-12)
(16999.999996 2.68426264248e-09 -1.61937193493e-12)
(16999.999996 2.71364086753e-09 -1.6059326041e-12)
(16999.999996 2.7430194573e-09 -1.75382143979e-12)
(16999.999996 2.80517449054e-09 -1.11295907654e-11)
(16999.999996 4.84265095104e-09 -5.4460692696e-10)
(16999.9999936 1.23127466858e-07 -2.87114896372e-08)
(16999.9998489 7.16181765376e-06 -1.61139054793e-06)
(16999.9914103 0.000407757590214 -2.70161016944e-05)
(16999.3712646 0.0305480699013 -0.000298124746578)
(16968.6789114 1.31781495282 -0.00427739958804)
(16664.4888243 11.9955306377 -0.0126097613115)
(14937.7543351 73.0136466965 -0.00839881682569)
(11367.4084884 194.990701855 0.0012074542154)
(7495.0943246 329.842558442 0.00340250785043)
(4440.02377128 440.499309169 0.0026472062056)
(2502.78246237 517.304095746 0.00179775566728)
(1508.98569958 565.03631902 0.00114189881203)
(1110.97419224 593.042711045 0.000731027437982)
(974.087575561 611.421614884 0.000551200142121)
(916.013818823 626.460902232 0.000506615718245)
(877.159699568 640.341603715 0.000509498403307)
(843.007865453 653.611403104 0.000521976072)
(810.512176165 666.385699384 0.000533710055306)
(778.976812935 678.697006774 0.000542681772948)
(748.422462977 690.55210044 0.000548690643775)
(718.763642155 701.958768196 0.000551722210366)
(689.738464137 712.957332091 0.000551835756351)
(661.371895806 723.559217257 0.000549229013735)
(633.669968821 733.78301024 0.00054408977016)
(606.618950313 743.639570172 0.00053640745343)
(580.186181267 753.150094434 0.000526035585575)
(554.331453047 762.333904307 0.000512925243577)
(529.024129203 771.208409356 0.000497068697104)
(504.251804909 779.788955355 0.000478391868744)
(480.024134648 788.088196799 0.00045676912325)
(456.361298819 796.116306526 0.000432013682643)
(433.245360867 803.883290869 0.000403892341592)
(410.607315543 811.398987363 0.000372155060949)
(388.381419295 818.670002629 0.000336531676879)
(366.5644656 825.697419903 0.00029669938346)
(345.212313984 832.476653912 0.000252265212455)
(324.369717773 839.000739609 0.000202827643391)
(304.005432414 845.262581107 0.000148091323963)
(284.031811644 851.254143025 8.79614467669e-05)
(264.377590918 856.964363867 2.23440152452e-05)
(245.051581534 862.374723513 -4.89152337025e-05)
(226.148452457 867.471861753 -0.000125550465976)
(207.771028524 872.221698014 -0.000206940354802)
(189.900945374 876.605610519 -0.00029232105138)
(172.362523036 880.61056634 -0.000380499182294)
(154.977728178 884.226431781 -0.000469917006775)
(137.772710974 887.435248471 -0.000558774098411)
(120.937932898 890.211709852 -0.000644934608268)
(104.6092518 892.534059092 -0.000725999617305)
(88.8330759768 894.38747168 -0.000799555460888)
(73.439403747 895.772688826 -0.000862147305525)
(65.8989201414 896.487272314 -0.000891524861094)
(16999.9999969 1.46047351274e-09 -9.80663920691e-13)
(16999.9999969 1.48514824645e-09 -9.85546626146e-13)
(16999.9999969 1.50939742833e-09 -9.90350525283e-13)
(16999.9999969 1.53322578007e-09 -9.94763213932e-13)
(16999.9999969 1.55663814141e-09 -9.99392320435e-13)
(16999.9999969 1.57963908712e-09 -1.00309750826e-12)
(16999.9999969 1.60223376352e-09 -1.00652974591e-12)
(16999.9999969 1.62442641034e-09 -1.01020539974e-12)
(16999.9999969 1.64622192639e-09 -1.01361457888e-12)
(16999.9999969 1.66762475644e-09 -1.01632368182e-12)
(16999.9999969 1.68863977696e-09 -1.01906806571e-12)
(16999.9999969 1.70927226905e-09 -1.0219616899e-12)
(16999.9999969 1.72952665029e-09 -1.02391540037e-12)
(16999.9999969 1.74940899949e-09 -1.02673137347e-12)
(16999.9999969 1.7689946612e-09 -1.034168247e-12)
(16999.9999969 1.79243337777e-09 -1.33457377906e-12)
(16999.9999968 2.06399285917e-09 -1.8212557646e-11)
(16999.9999966 1.69906737947e-08 -9.61620774723e-10)
(16999.9999847 8.89097951136e-07 -4.96266138715e-08)
(16999.9992561 5.39509993112e-05 -2.72197505319e-06)
(16999.9588838 0.0029394980828 -3.08417343378e-05)
(16996.1199862 0.284421444793 -0.000378530201373)
(16927.4673927 4.30556743607 -0.0031447299184)
(16279.3815651 41.8061688258 -0.00559866241395)
(13793.919609 184.821966629 -0.00171994866865)
(9892.64822362 411.78050087 0.00132174428972)
(6241.52897928 623.757279246 0.00138073819802)
(3603.10552483 778.450900696 0.000983137169674)
(2051.36499252 872.060054973 0.000635295457268)
(1324.31250934 918.626113913 0.000389700523196)
(1056.04797445 937.933373763 0.000259032238106)
(960.203291571 946.636345236 0.000218907615108)
(910.7224795 952.523885803 0.000222031849062)
(872.19849196 957.831129676 0.000237736377872)
(836.865075594 963.044902297 0.000255195997216)
(803.115380465 968.257073765 0.000271609360461)
(770.601034842 973.478522509 0.000286324920165)
(739.136860562 978.713419378 0.000299215081852)
(708.812639205 983.93577134 0.000310180372348)
(679.573108391 989.140703948 0.000319087070134)
(651.191095781 994.339022132 0.000325861354826)
(623.690445867 999.517080463 0.000330406176167)
(597.037865707 1004.67858741 0.000332651108616)
(571.189516455 1009.81613183 0.00033258087027)
(546.09665307 1014.92628595 0.000330129154455)
(521.715927465 1020.00590333 0.000325203373279)
(498.02136058 1025.04996841 0.000317715095872)
(475.00785977 1030.05169097 0.000307561975215)
(452.679058841 1035.00281189 0.000294638685499)
(431.002559439 1039.89660236 0.000278824388648)
(409.899926294 1044.72895137 0.000260018098056)
(389.302829248 1049.49770754 0.00023817186353)
(369.207894958 1054.18389497 0.000213173458578)
(349.657639708 1058.77418652 0.00018487587425)
(330.663572262 1063.252114 0.000153260293044)
(312.167473811 1067.60412622 0.00011840803154)
(294.092180972 1071.81722529 8.04387603518e-05)
(276.416505486 1075.87448914 3.95153466859e-05)
(259.263172297 1079.74816404 -4.13503280897e-06)
(242.487721392 1083.42972706 -5.01528286173e-05)
(226.058257179 1086.90199059 -9.79956663114e-05)
(210.073574461 1090.13321292 -0.000146958215968)
(194.380703174 1093.11379935 -0.000196271314065)
(178.975472635 1095.82700006 -0.00024516265708)
(163.906411538 1098.2558578 -0.000292827122912)
(149.209033416 1100.38499815 -0.000338359006863)
(134.872802815 1102.20323115 -0.000380781607725)
(120.861058654 1103.7030614 -0.000419162371498)
(107.163381186 1104.87733992 -0.000452368708131)
(100.458485688 1105.47212634 -0.000467934487843)
(16999.9999974 1.01085881114e-09 -4.42206207726e-13)
(16999.9999974 1.02807902017e-09 -4.46824627356e-13)
(16999.9999974 1.04500786717e-09 -4.51379602317e-13)
(16999.9999974 1.06164774925e-09 -4.55919622481e-13)
(16999.9999974 1.07800178905e-09 -4.60375940952e-13)
(16999.9999974 1.09407313804e-09 -4.64973048663e-13)
(16999.9999974 1.10986458504e-09 -4.69660297117e-13)
(16999.9999974 1.12537895718e-09 -4.73749701915e-13)
(16999.9999974 1.14061985416e-09 -4.77820231037e-13)
(16999.9999974 1.1555904585e-09 -4.82268577788e-13)
(16999.9999974 1.17029392466e-09 -4.86258248801e-13)
(16999.9999974 1.18473312589e-09 -4.90145559718e-13)
(16999.9999974 1.1989114904e-09 -4.93831673209e-13)
(16999.9999974 1.21283842513e-09 -4.97566383655e-13)
(16999.9999974 1.22687625625e-09 -5.08035587614e-13)
(16999.9999974 1.26206035101e-09 -9.19190004051e-13)
(16999.9999974 2.54625182883e-09 -2.43681513331e-11)
(16999.9999966 7.66770299208e-08 -1.32525204246e-09)
(16999.9999524 4.35564448046e-06 -7.10877225896e-08)
(16999.9972869 0.000260806847875 -2.90862219008e-06)
(16999.8516993 0.0140521296101 -3.12282890261e-05)
(16985.8422936 1.35089442826 -0.000480842329596)
(16829.1646038 14.4099138701 -0.00225880348498)
(15676.2595328 110.178325463 -0.00245742752018)
(12589.240901 360.330186495 -0.000204415852931)
(8665.69614576 679.371884898 0.000730105422747)
(5301.75151697 951.096287484 0.000600393809886)
(3031.54729735 1133.1290374 0.00040708455281)
(1784.31865397 1231.51631402 0.000253326048724)
(1245.95800057 1270.96626126 0.000153124450811)
(1056.60106421 1280.66077103 0.000108131826505)
(982.307548845 1280.59796864 0.000100292641877)
(936.758211068 1278.40526281 0.00010771937452)
(898.260730856 1276.01792557 0.000119329231164)
(862.255910112 1273.83299867 0.000131712214534)
(827.79857917 1271.9218974 0.000143944699604)
(794.653397672 1270.29127374 0.000155676469452)
(762.724452613 1268.93488993 0.000166696239133)
(731.949989937 1267.84671819 0.000176857823799)
(702.271980938 1267.00934455 0.000185998374332)
(673.566227053 1266.42347208 0.000193929024478)
(645.953101073 1266.06332202 0.000200498886371)
(619.391193945 1265.91761073 0.000205582549136)
(593.657296267 1265.99506839 0.000209057517872)
(568.771141319 1266.2792019 0.000210807267906)
(544.688657729 1266.76026804 0.00021072138468)
(521.376887994 1267.42724049 0.000208692925104)
(498.827888106 1268.26645411 0.000204619454475)
(477.027889993 1269.26375308 0.000198412517006)
(455.930221429 1270.40709356 0.000190003543692)
(435.542461845 1271.67850958 0.000179341051834)
(415.644457217 1273.08281473 0.000166385948001)
(396.235685284 1274.60410509 0.000151112903006)
(377.5074019 1276.20369836 0.000133533209294)
(359.35154897 1277.8719774 0.0001137188538)
(341.698786377 1279.59404339 9.17990826878e-05)
(324.506754676 1281.35268203 6.79369696068e-05)
(307.786796157 1283.12678347 4.23360479975e-05)
(291.570639378 1284.89365786 1.52455539697e-05)
(275.850982644 1286.63101442 -1.30375738015e-05)
(260.55524513 1288.32982476 -4.21166897524e-05)
(245.594191504 1289.97639598 -7.15272190229e-05)
(230.93211748 1291.55622811 -0.00010082669683)
(216.591083397 1293.05109187 -0.000129549278358)
(202.609528272 1294.44500048 -0.000157166703417)
(189.009446134 1295.71694722 -0.000183183699623)
(175.774312509 1296.86030375 -0.000207174058186)
(162.858306228 1297.87180805 -0.000228713435921)
(150.232706207 1298.74773881 -0.000247318548309)
(144.000893161 1299.18778306 -0.000256045032009)
(16999.9999978 7.3297186127e-10 -2.05812216851e-13)
(16999.9999978 7.45532406709e-10 -2.08769291389e-13)
(16999.9999978 7.57881703545e-10 -2.11431864107e-13)
(16999.9999978 7.70022125215e-10 -2.13715020945e-13)
(16999.9999978 7.81955861772e-10 -2.16602149901e-13)
(16999.9999978 7.9368476984e-10 -2.19365461748e-13)
(16999.9999978 8.05211294324e-10 -2.21332746129e-13)
(16999.9999978 8.16537459374e-10 -2.23861583702e-13)
(16999.9999978 8.2766502122e-10 -2.26606186041e-13)
(16999.9999978 8.38596487124e-10 -2.29049050994e-13)
(16999.9999978 8.49333914432e-10 -2.31705458147e-13)
(16999.9999978 8.59880140275e-10 -2.33991867917e-13)
(16999.9999978 8.70237289854e-10 -2.36566065008e-13)
(16999.9999978 8.8042642003e-10 -2.3895003662e-13)
(16999.9999978 8.91553025189e-10 -2.53829252825e-13)
(16999.9999978 9.69306706129e-10 -9.99143269656e-13)
(16999.9999978 5.02368449874e-09 -4.28094823732e-11)
(16999.9999958 2.45103861259e-07 -2.23744701842e-09)
(16999.9998755 1.45652282444e-05 -1.23645471557e-07)
(16999.9927442 0.000858526652571 -2.32448245971e-06)
(16999.4988499 0.0594434625886 -2.74275671771e-05)
(16970.5882816 3.40107826594 -0.000425706480122)
(16686.2009361 34.2476493939 -0.00130069827959)
(15027.5612485 211.567530746 -0.000888691034658)
(11518.3080515 578.983645871 0.000123634067592)
(7662.74024016 979.265167314 0.000352706748726)
(4599.0682277 1293.54710913 0.000263967433474)
(2645.6193909 1489.52295217 0.000170300392983)
(1638.42963312 1584.41273562 0.00010075726598)
(1233.10059205 1613.93925237 5.99824960428e-05)
(1091.87326078 1614.42093763 4.57276106509e-05)
(1029.25148907 1606.59121448 4.68007465875e-05)
(985.586800544 1597.25990242 5.34069592752e-05)
(946.859953359 1588.02324914 6.15070148408e-05)
(910.255497077 1579.18660904 6.99832574992e-05)
(875.175099013 1570.80074132 7.85140349046e-05)
(841.445198735 1562.86821541 8.69460840003e-05)
(808.979930991 1555.38235639 9.51533922757e-05)
(777.718432306 1548.33437745 0.000103008660125)
(747.609254747 1541.71467128 0.000110370448366)
(718.602612059 1535.51477256 0.000117098292672)
(690.652359102 1529.72882706 0.000123072777283)
(663.704410559 1524.34073986 0.000128163640687)
(637.70411566 1519.34513372 0.000132226964477)
(612.608294232 1514.73254691 0.000135140306809)
(588.378601937 1510.49297874 0.000136795675108)
(564.989663866 1506.61462598 0.000137089125658)
(542.420946243 1503.0847402 0.000135928614908)
(520.637179348 1499.89156049 0.000133239206911)
(499.587290838 1497.02429894 0.000128970732164)
(479.220771796 1494.47170659 0.000123086719499)
(459.508338704 1492.21711417 0.000115555291537)
(440.437553591 1490.250949 0.000106387186111)
(421.98834035 1488.55430222 9.56372382674e-05)
(404.107759177 1487.11371206 8.33855490662e-05)
(386.735899483 1485.91966894 6.97577331069e-05)
(369.872830364 1484.94578487 5.49025755316e-05)
(353.565971834 1484.16928553 3.89852132031e-05)
(337.823719934 1483.57007318 2.2221143451e-05)
(322.572055548 1483.13789518 4.86816381441e-06)
(307.727385656 1482.86422625 -1.2792623076e-05)
(293.252194893 1482.73650264 -3.0463729753e-05)
(279.13282256 1482.74100936 -4.78376587262e-05)
(265.446612529 1482.85419229 -6.45990153548e-05)
(252.024300277 1483.08355495 -8.04295486393e-05)
(238.877403843 1483.41622556 -9.50243760274e-05)
(226.181138093 1483.81974941 -0.000108102417055)
(213.775901774 1484.30599905 -0.000119415406263)
(201.578468246 1484.87977565 -0.000128724932141)
(195.57523818 1485.16791364 -0.000132954729671)
(16999.9999981 5.50554715901e-10 -9.95956216707e-14)
(16999.9999981 5.60035710294e-10 -1.00921022541e-13)
(16999.9999981 5.69359707956e-10 -1.02502040462e-13)
(16999.9999981 5.78527397774e-10 -1.03779371117e-13)
(16999.9999981 5.87539787635e-10 -1.05119216595e-13)
(16999.9999981 5.96398778689e-10 -1.07108495003e-13)
(16999.9999981 6.05105977802e-10 -1.08593657374e-13)
(16999.9999981 6.13663231947e-10 -1.09750452398e-13)
(16999.9999981 6.22072385915e-10 -1.10854835832e-13)
(16999.9999981 6.30334838593e-10 -1.12430748384e-13)
(16999.9999981 6.38451934491e-10 -1.13743982185e-13)
(16999.9999981 6.46425055437e-10 -1.15165008864e-13)
(16999.9999981 6.54257270167e-10 -1.16719089089e-13)
(16999.9999981 6.62025180551e-10 -1.18315480339e-13)
(16999.9999981 6.74137784195e-10 -1.41378647152e-13)
(16999.9999981 9.49296786066e-10 -1.3585601482e-12)
(16999.999998 1.66582159924e-08 -6.90989052094e-11)
(16999.9999916 9.30682277307e-07 -3.5573019443e-09)
(16999.9996068 5.57533215938e-05 -1.95728290641e-07)
(16999.9782461 0.0030793975492 -2.56284146864e-06)
(16998.0793871 0.274368574167 -2.96793257831e-05)
(16952.188478 6.40301933302 -0.000307596478304)
(16478.6769068 67.7365838047 -0.000668619617693)
(14312.6114444 346.941610304 -0.000278258915247)
(10543.9316562 827.380663632 0.000133734800973)
(6834.89166915 1294.68130066 0.000163026947097)
(4064.39992142 1637.82746407 0.000113138182085)
(2385.76308541 1838.18992887 6.91887851627e-05)
(1570.8985491 1924.90091416 3.86544038264e-05)
(1261.23599457 1944.06575352 2.3002066333e-05)
(1150.66030997 1936.51629316 1.95003119035e-05)
(1094.75971363 1922.10480778 2.21667306814e-05)
(1051.96515788 1906.62941989 2.69294527197e-05)
(1012.87034057 1891.40643445 3.2345092423e-05)
(975.653914124 1876.68438405 3.8027619344e-05)
(939.919958928 1862.50963456 4.38470458701e-05)
(905.539715306 1848.88978018 4.97192454604e-05)
(872.443538594 1835.8235207 5.55614116034e-05)
(840.573829182 1823.30786523 6.12836341247e-05)
(809.887809448 1811.33752144 6.6788321844e-05)
(780.342765073 1799.90725529 7.19730829862e-05)
(751.882443786 1789.01339073 7.67338541884e-05)
(724.453451839 1778.6511169 8.096470164e-05)
(698.002605331 1768.8156774 8.45589465958e-05)
(672.488363414 1759.50130458 8.7414144697e-05)
(647.874389102 1750.7009777 8.94359998737e-05)
(624.133343528 1742.40572246 9.05378200265e-05)
(601.249762725 1734.60411524 9.06468323408e-05)
(579.189320188 1727.2911238 8.9710802345e-05)
(557.896798827 1720.45375705 8.7687013719e-05)
(537.321427978 1714.08904804 8.45451424939e-05)
(517.440168975 1708.18599074 8.02840265828e-05)
(498.245504434 1702.72984479 7.49309859493e-05)
(479.710640784 1697.70810613 6.8536931305e-05)
(461.866501229 1693.10064038 6.11767523901e-05)
(444.490440398 1688.9255269 5.29513459709e-05)
(427.552996444 1685.17249375 4.39881782645e-05)
(411.251783588 1681.79569682 3.44427332046e-05)
(395.518614083 1678.78735413 2.44948604652e-05)
(380.304322932 1676.13761946 1.43415640076e-05)
(365.550679551 1673.84177633 4.19268282088e-06)
(351.218420641 1671.89409525 -5.73041629707e-06)
(337.295618329 1670.28456777 -1.5198541921e-05)
(323.776307396 1669.00165129 -2.39818890312e-05)
(310.647727578 1668.03518039 -3.18569414679e-05)
(297.907028048 1667.37441604 -3.86117768626e-05)
(285.553407281 1667.01062102 -4.40514086039e-05)
(273.567949299 1666.93891723 -4.80030968189e-05)
(261.924203018 1667.15795824 -5.0319742236e-05)
(256.09749944 1667.28423089 -5.11167870632e-05)
(16999.9999984 4.25361591917e-10 -4.82022970679e-14)
(16999.9999984 4.32716482767e-10 -4.91113217722e-14)
(16999.9999984 4.39950042627e-10 -4.99422519747e-14)
(16999.9999984 4.47063754737e-10 -5.08123769599e-14)
(16999.9999984 4.5405890901e-10 -5.09669864128e-14)
(16999.9999984 4.60935982982e-10 -5.1708932403e-14)
(16999.9999984 4.67695647894e-10 -5.23906982605e-14)
(16999.9999984 4.74339627549e-10 -5.32641648861e-14)
(16999.9999984 4.80869291425e-10 -5.37631955916e-14)
(16999.9999984 4.87285958929e-10 -5.4553265618e-14)
(16999.9999984 4.93590751397e-10 -5.5320954961e-14)
(16999.9999984 4.99785042188e-10 -5.58572637429e-14)
(16999.9999984 5.05873657855e-10 -5.65918514752e-14)
(16999.9999984 5.12104633728e-10 -5.76461692741e-14)
(16999.9999984 5.33062888746e-10 -8.43589330662e-14)
(16999.9999984 1.42679168642e-09 -1.50002443088e-12)
(16999.9999981 5.35399804057e-08 -7.8765549275e-11)
(16999.9999798 3.08034751137e-06 -3.984253954e-09)
(16999.9988808 0.000185114783084 -2.13768908577e-07)
(16999.9387932 0.0100701771536 -2.33701099065e-06)
(16994.2498236 0.952521594655 -2.96492048989e-05)
(16905.0331243 14.7209910626 -0.000207908438949)
(16133.6917403 131.631162654 -0.000303182198607)
(13504.5191406 526.231680625 -6.79288230653e-05)
(9653.7308443 1102.40230543 6.77574330045e-05)
(6138.55479627 1621.36982745 5.96372515783e-05)
(3649.17253668 1980.81950289 3.89383709842e-05)
(2213.17949243 2177.38689882 2.28494224495e-05)
(1556.35132408 2252.38881394 1.27008509042e-05)
(1317.02087143 2261.31037855 8.57340065239e-06)
(1226.74130951 2246.75043506 8.81486317234e-06)
(1174.98210673 2226.66383445 1.11199991544e-05)
(1132.5001004 2205.8513066 1.4214431266e-05)
(1092.93544983 2185.37104801 1.76770875788e-05)
(1055.09046032 2165.43808711 2.13783322495e-05)
(1018.68745709 2146.0982755 2.52553057484e-05)
(983.625056796 2127.36830406 2.92494543867e-05)
(949.847712159 2109.25565957 3.32988308743e-05)
(917.313587227 2091.76831696 3.73396634629e-05)
(885.980454826 2074.90021525 4.13013117975e-05)
(855.799245045 2058.65786846 4.5106931721e-05)
(826.708224647 2043.04552433 4.86784871454e-05)
(798.650393128 2028.065125 5.19370872963e-05)
(771.595386346 2013.71384538 5.4803815841e-05)
(745.514033989 1999.98918128 5.72027865529e-05)
(720.355651531 1986.89160644 5.90637154477e-05)
(696.078728512 1974.4193902 6.03241750236e-05)
(672.744830677 1962.55256616 6.09320659352e-05)
(650.176973381 1951.31160129 6.08480575695e-05)
(628.344707441 1940.69221284 6.00476552676e-05)
(607.369270481 1930.66444554 5.85233627292e-05)
(587.106367674 1921.24324194 5.62868480982e-05)
(567.509771669 1912.42538401 5.33696396734e-05)
(548.586217059 1904.19844046 4.98238104505e-05)
(530.347674323 1896.54958726 4.572330625e-05)
(512.759217918 1889.47504494 4.11647035018e-05)
(495.762053514 1882.9750082 3.62651707386e-05)
(479.300527705 1877.04877727 3.11584992202e-05)
(463.343422622 1871.68991796 2.59929303656e-05)
(447.928830906 1866.88035823 2.09307968832e-05)
(433.110532668 1862.60131616 1.61464046075e-05)
(418.855591697 1858.84975837 1.18214064977e-05)
(405.068045225 1855.63385661 8.13931542589e-06)
(391.740719536 1852.94626571 5.2808775888e-06)
(378.681743328 1850.81063509 3.4205895848e-06)
(365.929310433 1849.21188946 2.72172491412e-06)
(353.692233122 1848.10551264 3.33296308434e-06)
(341.882218129 1847.49818397 5.38667980536e-06)
(330.451407186 1847.39029771 8.98698636288e-06)
(324.666458416 1847.35990263 1.11137160151e-05)
(16999.9999986 3.36418830853e-10 -2.27486360546e-14)
(16999.9999986 3.42259958887e-10 -2.31088973211e-14)
(16999.9999986 3.48004330263e-10 -2.35992015158e-14)
(16999.9999986 3.53653150419e-10 -2.39817609733e-14)
(16999.9999986 3.59207929448e-10 -2.43364218036e-14)
(16999.9999986 3.64668955172e-10 -2.47770521569e-14)
(16999.9999986 3.70037756999e-10 -2.50391099871e-14)
(16999.9999986 3.75314887751e-10 -2.56350066247e-14)
(16999.9999986 3.80501325436e-10 -2.60809257405e-14)
(16999.9999986 3.8559770704e-10 -2.68644267893e-14)
(16999.9999986 3.90605753011e-10 -2.72453112971e-14)
(16999.9999986 3.95526534799e-10 -2.74776733855e-14)
(16999.9999986 4.00372608085e-10 -2.7893515766e-14)
(16999.9999986 4.05853577896e-10 -2.85636211205e-14)
(16999.9999986 4.53307902402e-10 -4.35616150698e-14)
(16999.9999985 2.94907593653e-09 -7.79153085338e-13)
(16999.9999978 1.47847773884e-07 -3.7793293143e-11)
(16999.9999537 8.50244909878e-06 -1.79232930646e-09)
(16999.9973079 0.00050824254512 -8.46866709133e-08)
(16999.8530601 0.0275629295119 -7.61619748827e-07)
(16986.0663822 2.62406988654 -9.67525008419e-06)
(16831.2686049 29.9152300569 -3.92765104183e-05)
(15698.2843001 228.322126726 -4.33749005525e-05)
(12672.4028684 749.115824184 -1.80318642248e-05)
(8833.84487586 1405.80587368 -8.05833381655e-06)
(5546.36573824 1959.88421722 -6.75033680662e-06)
(3327.67760657 2323.20705088 -4.63143936082e-06)
(2108.51974941 2508.39646757 -2.07179197648e-06)
(1581.74598453 2568.85420255 3.93679036881e-07)
(1394.63584714 2567.45033403 2.50707887817e-06)
(1318.01498039 2546.27766711 4.35246995719e-06)