/*--------------------------------*- C++ -*----------------------------------*\
| =========                 |                                                 |
| \\      /  F ield         | foam-extend: Open Source CFD                    |
|  \\    /   O peration     | Version:     4.1                                |
|   \\  /    A nd           | Web:         http://www.foam-extend.org         |
|    \\/     M anipulation  |                                                 |
\*---------------------------------------------------------------------------*/
FoamFile
{
    version     2.0;
    format      ascii;
    class       volScalarField;
    location    "0.0005";
    object      eMoins;
}
// * * * * * * * * * * * * * * * * * * * * * * * * * * * * * * * * * * * * * //

dimensions      [0 0 0 0 0 0 0];

internalField   nonuniform List<scalar> 
8400
(
9.9120742646e-163
9.91207426466e-163
9.91207426471e-163
9.91207426477e-163
9.91207426483e-163
9.91207426488e-163
9.91207426494e-163
9.91207426499e-163
9.91207426504e-163
9.9120742651e-163
9.91207426515e-163
9.9120742652e-163
9.91207426525e-163
9.91207426529e-163
9.91207426534e-163
9.91207426539e-163
9.91207426543e-163
9.91207426548e-163
9.91207426553e-163
9.9120742658e-163
9.91207427966e-163
9.91207511225e-163
9.91212382463e-163
9.91494994561e-163
1.0010054837e-162
2.94622457569e-63
2.79516492153e-13
1.28079077521e-08
7.19472795818e-06
1.74538991839e-05
2.30790235349e-05
2.55602284647e-05
2.65378257073e-05
2.68849602517e-05
2.70041953816e-05
2.70530508845e-05
2.70858057963e-05
2.71143448834e-05
2.71416202619e-05
2.71686264759e-05
2.71925778305e-05
2.72202289553e-05
2.72485483034e-05
2.72776930166e-05
2.73080267929e-05
2.7339768833e-05
2.73730713654e-05
2.74081288824e-05
2.74451145219e-05
2.74840468422e-05
2.75248729658e-05
2.7564379367e-05
2.76088985692e-05
2.76549595711e-05
2.77023025399e-05
2.77507711846e-05
2.77999337862e-05
2.78493683105e-05
2.78983583312e-05
2.7946396713e-05
2.79932972236e-05
2.80346820642e-05
2.80766776719e-05
2.81149817037e-05
2.81489706759e-05
2.81782551533e-05
2.82023651128e-05
2.82209636503e-05
2.82337515291e-05
2.82515289962e-05
9.91207424962e-163
9.91207424964e-163
9.91207424966e-163
9.91207424969e-163
9.91207424971e-163
9.91207424973e-163
9.91207424975e-163
9.91207424978e-163
9.9120742498e-163
9.91207424982e-163
9.91207424984e-163
9.91207424986e-163
9.91207424988e-163
9.9120742499e-163
9.91207424992e-163
9.91207424994e-163
9.91207424996e-163
9.91207424998e-163
9.91207425002e-163
9.9120742514e-163
9.91207433341e-163
9.91207924635e-163
9.91235944413e-163
9.92866694215e-163
1.02064899237e-162
1.70534900245e-39
9.40289584294e-10
5.36020246913e-07
1.21103719554e-05
2.05124502215e-05
2.46065263708e-05
2.62870470534e-05
2.69134077336e-05
2.71174340571e-05
2.71800684012e-05
2.72149405788e-05
2.72405373167e-05
2.72657114443e-05
2.72916093388e-05
2.73184404224e-05
2.73463737668e-05
2.73755466678e-05
2.74061465219e-05
2.74381966649e-05
2.74716984766e-05
2.75068346557e-05
2.7543676076e-05
2.75823293834e-05
2.76229456041e-05
2.7665459364e-05
2.77095405821e-05
2.77552861372e-05
2.78026002261e-05
2.78510951981e-05
2.7900560547e-05
2.7950695225e-05
2.80009316585e-05
2.80507903759e-05
2.80998005234e-05
2.81447184482e-05
2.8190699777e-05
2.82343459292e-05
2.82749187965e-05
2.83115734298e-05
2.83439988266e-05
2.83718653287e-05
2.83947282284e-05
2.84122803333e-05
2.8424274568e-05
2.84387685044e-05
9.91207424323e-163
9.91207424324e-163
9.91207424325e-163
9.91207424327e-163
9.91207424328e-163
9.91207424329e-163
9.91207424331e-163
9.91207424332e-163
9.91207424333e-163
9.91207424335e-163
9.91207424336e-163
9.91207424337e-163
9.91207424339e-163
9.9120742434e-163
9.91207424341e-163
9.91207424342e-163
9.91207424343e-163
9.91207424345e-163
9.91207424357e-163
9.91207424998e-163
9.91207462445e-163
9.9120964632e-163
9.91330991545e-163
9.98079829785e-163
4.40147270346e-65
7.67780144289e-15
7.44325384878e-09
5.30807399108e-06
1.63586178236e-05
2.27434262021e-05
2.5594339823e-05
2.67175320507e-05
2.71013579524e-05
2.72176934795e-05
2.72592825697e-05
2.72829215815e-05
2.73045326428e-05
2.73266783803e-05
2.73500155154e-05
2.73747499359e-05
2.74010505025e-05
2.74289557839e-05
2.7458496322e-05
2.74897565886e-05
2.75228578048e-05
2.75578213577e-05
2.75947436002e-05
2.76337464251e-05
2.76746366293e-05
2.77172455282e-05
2.77616715025e-05
2.7807750758e-05
2.78550213841e-05
2.79033846558e-05
2.79525464003e-05
2.80020133373e-05
2.80513604263e-05
2.81000675032e-05
2.81478923121e-05
2.81942915886e-05
2.82385050209e-05
2.82802244445e-05
2.83157891608e-05
2.83506255248e-05
2.83813993293e-05
2.84077235587e-05
2.84292061184e-05
2.84455724372e-05
2.84566649925e-05
2.84690449441e-05
9.91207423971e-163
9.91207423972e-163
9.91207423973e-163
9.91207423974e-163
9.91207423975e-163
9.91207423976e-163
9.91207423977e-163
9.91207423978e-163
9.91207423979e-163
9.91207423979e-163
9.9120742398e-163
9.91207423981e-163
9.91207423982e-163
9.91207423983e-163
9.91207423984e-163
9.91207423985e-163
9.91207423986e-163
9.91207423987e-163
9.9120742404e-163
9.91207427128e-163
9.91207611532e-163
9.91218200369e-163
9.91834729737e-163
1.00594203989e-162
8.18382879646e-63
4.73021360942e-12
3.21203419626e-08
9.70974748933e-06
1.91832560124e-05
2.40590415488e-05
2.61046751462e-05
2.68855261841e-05
2.71369384646e-05
2.72135697515e-05
2.72486485854e-05
2.72727102203e-05
2.72959556514e-05
2.73197691432e-05
2.73446401214e-05
2.73707791237e-05
2.73984163711e-05
2.74276175893e-05
2.74584375852e-05
2.74909616577e-05
2.752533404e-05
2.75615797068e-05
2.75997842598e-05
2.76400317947e-05
2.76820979078e-05
2.77258323606e-05
2.77713172706e-05
2.78183204254e-05
2.78663185964e-05
2.79152178503e-05
2.7964707244e-05
2.80142400657e-05
2.80634843911e-05
2.81119904451e-05
2.81564268783e-05
2.82020606261e-05
2.82455921362e-05
2.8286335669e-05
2.83237140678e-05
2.83574610696e-05
2.83872250462e-05
2.84125969187e-05
2.8433238603e-05
2.84489239308e-05
2.8459532714e-05
2.84708306952e-05
9.91207423753e-163
9.91207423754e-163
9.91207423754e-163
9.91207423755e-163
9.91207423756e-163
9.91207423757e-163
9.91207423757e-163
9.91207423758e-163
9.91207423759e-163
9.9120742376e-163
9.9120742376e-163
9.91207423761e-163
9.91207423762e-163
9.91207423762e-163
9.91207423763e-163
9.91207423764e-163
9.91207423764e-163
9.91207423768e-163
9.91207423957e-163
9.91207435183e-163
9.91208105992e-163
9.91246467841e-163
9.93490479768e-163
1.02854505508e-162
4.62932363282e-30
1.86711182921e-09
1.28844316571e-06
1.30290191705e-05
2.10029574033e-05
2.48115345173e-05
2.63536346349e-05
2.69165290323e-05
2.70918410274e-05
2.71478126723e-05
2.71817532863e-05
2.72084822084e-05
2.72351569255e-05
2.72626280565e-05
2.72911284251e-05
2.73207386279e-05
2.73516346772e-05
2.73840384816e-05
2.74180741061e-05
2.74537418895e-05
2.74910300195e-05
2.75300818006e-05
2.75709177153e-05
2.76136272241e-05
2.765821894e-05
2.77043343074e-05
2.77518947222e-05
2.78008167955e-05
2.78506199628e-05
2.79011366983e-05
2.79490442887e-05
2.7999923146e-05
2.8050312367e-05
2.80993650241e-05
2.81469510025e-05
2.81927081602e-05
2.82363207561e-05
2.82771619073e-05
2.83144124295e-05
2.83478759339e-05
2.8377329668e-05
2.8402402321e-05
2.84228113747e-05
2.84382957949e-05
2.84487578259e-05
2.84595748265e-05
9.91207423607e-163
9.91207423608e-163
9.91207423609e-163
9.91207423609e-163
9.9120742361e-163
9.9120742361e-163
9.91207423611e-163
9.91207423612e-163
9.91207423612e-163
9.91207423613e-163
9.91207423613e-163
9.91207423614e-163
9.91207423614e-163
9.91207423615e-163
9.91207423616e-163
9.91207423616e-163
9.91207423617e-163
9.91207423626e-163
9.91207424119e-163
9.91207453216e-163
9.91209166554e-163
9.91305414695e-163
9.96755713018e-163
1.06462710729e-162
2.52123000836e-16
5.69769121702e-09
4.24642852363e-06
1.5456480428e-05
2.21791001405e-05
2.52175654617e-05
2.64275221502e-05
2.68515528547e-05
2.69855357859e-05
2.70364652754e-05
2.70733851012e-05
2.71045747169e-05
2.71358858309e-05
2.71678931574e-05
2.72007960467e-05
2.72348316276e-05
2.72701602397e-05
2.7306832825e-05
2.73448742957e-05
2.73845129326e-05
2.74259085638e-05
2.74689039359e-05
2.7513455889e-05
2.75596444781e-05
2.7607429861e-05
2.76569476507e-05
2.77047710807e-05
2.77564382138e-05
2.78087841969e-05
2.78617338568e-05
2.79148951452e-05
2.79675309873e-05
2.80195182343e-05
2.80702544629e-05
2.81191313478e-05
2.81659302975e-05
2.82103111407e-05
2.82488702757e-05
2.82868019988e-05
2.8320672597e-05
2.83503264698e-05
2.83755568448e-05
2.8396103045e-05
2.84117117241e-05
2.84222499071e-05
2.8432785982e-05
9.91207423505e-163
9.91207423505e-163
9.91207423506e-163
9.91207423506e-163
9.91207423507e-163
9.91207423507e-163
9.91207423508e-163
9.91207423508e-163
9.91207423509e-163
9.91207423509e-163
9.9120742351e-163
9.9120742351e-163
9.91207423511e-163
9.91207423511e-163
9.91207423512e-163
9.91207423512e-163
9.91207423513e-163
9.91207423532e-163
9.91207424701e-163
9.91207495941e-163
9.91211734474e-163
9.91459982918e-163
1.00058405096e-162
2.40609224708e-63
1.85456132195e-13
1.18419901825e-08
6.93115010627e-06
1.72722089365e-05
2.29471902333e-05
2.54246920273e-05
2.63899485556e-05
2.67280118679e-05
2.68375127374e-05
2.68881703297e-05
2.69271581174e-05
2.69672848188e-05
2.70041979288e-05
2.70416795144e-05
2.70799497983e-05
2.71193044957e-05
2.71597436524e-05
2.72013550239e-05
2.7244353803e-05
2.72888364297e-05
2.73347816713e-05
2.73793445547e-05
2.74283471641e-05
2.74788319151e-05
2.75308340525e-05
2.75839091073e-05
2.76381988203e-05
2.76934180309e-05
2.77489849363e-05
2.78048022886e-05
2.78606025107e-05
2.79161028328e-05
2.79704670007e-05
2.80201517307e-05
2.80711415326e-05
2.81196006831e-05
2.81653869048e-05
2.82080176586e-05
2.82468542454e-05
2.82815728721e-05
2.83118968022e-05
2.83376000028e-05
2.83584955855e-05
2.83743920346e-05
2.83851677906e-05
2.83956747822e-05
9.91207423429e-163
9.91207423429e-163
9.9120742343e-163
9.9120742343e-163
9.91207423431e-163
9.91207423431e-163
9.91207423432e-163
9.91207423432e-163
9.91207423433e-163
9.91207423433e-163
9.91207423433e-163
9.91207423434e-163
9.91207423434e-163
9.91207423435e-163
9.91207423435e-163
9.91207423435e-163
9.91207423437e-163
9.91207423488e-163
9.91207426523e-163
9.91207607744e-163
9.91218025751e-163
9.91823920404e-163
1.00589714421e-162
7.95569944195e-63
4.11675750572e-12
2.92306963571e-08
9.32480724478e-06
1.86453123586e-05
2.34625053082e-05
2.54992668777e-05
2.62879828593e-05
2.65569723686e-05
2.66542624482e-05
2.67082049873e-05
2.67539346902e-05
2.67979541112e-05
2.6841535361e-05
2.6885469461e-05
2.69299750768e-05
2.69753330853e-05
2.70216091304e-05
2.70687753256e-05
2.71172248391e-05
2.71670105128e-05
2.72180574655e-05
2.72705505777e-05
2.73244293884e-05
2.73795170455e-05
2.74357856524e-05
2.74932178805e-05
2.75516395032e-05
2.76106162782e-05
2.76670630462e-05
2.77263843451e-05
2.77853269467e-05
2.78436454052e-05
2.7900583481e-05
2.79558699684e-05
2.80090678774e-05
2.80598724182e-05
2.81074602613e-05
2.8151520687e-05
2.81886585503e-05
2.82246989293e-05
2.82560096261e-05
2.82825241232e-05
2.8304058547e-05
2.83204286759e-05
2.83315440029e-05
2.83421162295e-05
9.91207423371e-163
9.91207423372e-163
9.91207423372e-163
9.91207423373e-163
9.91207423373e-163
9.91207423373e-163
9.91207423374e-163
9.91207423374e-163
9.91207423374e-163
9.91207423375e-163
9.91207423375e-163
9.91207423376e-163
9.91207423376e-163
9.91207423376e-163
9.91207423377e-163
9.91207423377e-163
9.91207423379e-163
9.91207423497e-163
9.9120743064e-163
9.91207863364e-163
9.91232898975e-163
9.92702259432e-163
1.01867759728e-162
1.16020000655e-39
6.36937600109e-10
2.85351093215e-07
1.14138353812e-05
1.97215676511e-05
2.38026626876e-05
2.54945501166e-05
2.61332981997e-05
2.6353974081e-05
2.64444126526e-05
2.65025504571e-05
2.65547574826e-05
2.66059490543e-05
2.66569144421e-05
2.67078680997e-05
2.67593585975e-05
2.68112987296e-05
2.6863793784e-05
2.69171341889e-05
2.69715869661e-05
2.70271773472e-05
2.70837255148e-05
2.7141660928e-05
2.72007692251e-05
2.72610284827e-05
2.73192168042e-05
2.7381322439e-05
2.74441304818e-05
2.75073711788e-05
2.75706893264e-05
2.763388084e-05
2.76962005577e-05
2.77575304168e-05
2.78176597254e-05
2.7872821373e-05
2.79287018179e-05
2.79817471823e-05
2.80314827214e-05
2.80774239454e-05
2.81191839038e-05
2.81564615925e-05
2.81890267166e-05
2.82166108386e-05
2.82389801234e-05
2.82559119369e-05
2.82673593857e-05
2.82779373582e-05
9.91207423326e-163
9.91207423326e-163
9.91207423327e-163
9.91207423327e-163
9.91207423327e-163
9.91207423328e-163
9.91207423328e-163
9.91207423328e-163
9.91207423329e-163
9.91207423329e-163
9.91207423329e-163
9.9120742333e-163
9.9120742333e-163
9.9120742333e-163
9.91207423331e-163
9.91207423331e-163
9.91207423336e-163
9.91207423611e-163
9.91207439955e-163
9.91208409745e-163
9.91263324289e-163
9.94420910264e-163
1.03941599445e-162
1.32841462353e-21
2.91568344618e-09
1.96531636156e-06
1.32210747924e-05
2.05503096396e-05
2.39933175347e-05
2.54165914525e-05
2.59405396581e-05
2.61277220876e-05
2.62117768881e-05
2.62749343535e-05
2.63337617917e-05
2.63920255227e-05
2.64501209525e-05
2.65082650083e-05
2.65666823014e-05
2.66257096229e-05
2.66851440286e-05
2.67452869577e-05
2.68063512614e-05
2.68682262311e-05
2.69279612306e-05
2.69916347883e-05
2.70563405558e-05
2.71220613461e-05
2.71884254463e-05
2.72555995146e-05
2.73229478012e-05
2.73904891213e-05
2.74581805279e-05
2.75222267625e-05
2.75884801988e-05
2.76535031627e-05
2.77167290686e-05
2.77779012073e-05
2.78365358442e-05
2.78920082674e-05
2.7943830645e-05
2.79886169067e-05
2.80323351809e-05
2.80714350318e-05
2.81055139185e-05
2.81341050121e-05
2.81572254548e-05
2.81747529066e-05
2.81866176836e-05
2.81972808112e-05
9.9120742329e-163
9.9120742329e-163
9.9120742329e-163
9.9120742329e-163
9.91207423291e-163
9.91207423291e-163
9.91207423291e-163
9.91207423292e-163
9.91207423292e-163
9.91207423292e-163
9.91207423293e-163
9.91207423293e-163
9.91207423293e-163
9.91207423294e-163
9.91207423294e-163
9.91207423294e-163
9.91207423304e-163
9.91207423868e-163
9.9120745688e-163
9.91209381607e-163
9.91316491497e-163
9.97296101037e-163
1.07079224394e-162
5.29778932816e-16
5.92678095455e-09
4.07694831822e-06
1.48175174696e-05
2.1185633095e-05
2.40897905254e-05
2.52694760221e-05
2.57038924197e-05
2.58680132144e-05
2.59539393876e-05
2.60244146306e-05
2.60913145642e-05
2.61573301022e-05
2.62232376363e-05
2.62891601298e-05
2.63550655082e-05
2.64214148655e-05
2.64850026305e-05
2.65521834352e-05
2.66200481927e-05
2.66885035743e-05
2.6757632826e-05
2.68276264989e-05
2.68985031047e-05
2.69698476634e-05
2.70416702057e-05
2.71110283165e-05
2.71834102879e-05
2.72558827913e-05
2.73278736612e-05
2.73993092553e-05
2.74695094493e-05
2.75381057479e-05
2.76016691937e-05
2.76662173395e-05
2.77275725725e-05
2.77855562127e-05
2.78398282018e-05
2.78900180328e-05
2.79355245487e-05
2.79761120214e-05
2.80115071104e-05
2.80382540342e-05
2.80624273239e-05
2.80806071501e-05
2.80929102744e-05
2.81037009644e-05
9.9120742326e-163
9.9120742326e-163
9.9120742326e-163
9.9120742326e-163
9.91207423261e-163
9.91207423261e-163
9.91207423261e-163
9.91207423262e-163
9.91207423262e-163
9.91207423262e-163
9.91207423262e-163
9.91207423263e-163
9.91207423263e-163
9.91207423263e-163
9.91207423263e-163
9.91207423264e-163
9.91207423284e-163
9.91207424486e-163
9.9120749726e-163
9.91211804399e-163
9.91461919708e-163
1.00080433138e-162
2.31298193082e-63
1.57786034191e-13
1.09557134723e-08
6.22757439274e-06
1.61469284321e-05
2.16468164308e-05
2.40904117552e-05
2.50674213682e-05
2.54320446598e-05
2.55822463022e-05
2.56734327422e-05
2.57522885065e-05
2.58282108407e-05
2.5903270938e-05
2.59775526968e-05
2.6048597033e-05
2.61227783018e-05
2.61966688308e-05
2.62709852642e-05
2.63453919311e-05
2.64201361951e-05
2.64956274683e-05
2.65715015621e-05
2.66449924239e-05
2.6721947609e-05
2.67995299135e-05
2.6877330184e-05
2.69551891974e-05
2.70329495165e-05
2.71102717528e-05
2.7183716811e-05
2.72596344652e-05
2.73340461409e-05
2.74064689225e-05
2.7476720334e-05
2.7544399983e-05
2.76055595191e-05
2.76663752056e-05
2.77230491832e-05
2.77753850312e-05
2.78230095775e-05
2.78652872361e-05
2.79020445371e-05
2.79330078007e-05
2.79580225122e-05
2.79769760179e-05
2.79898449956e-05
2.80008110411e-05
9.91207423234e-163
9.91207423235e-163
9.91207423235e-163
9.91207423235e-163
9.91207423236e-163
9.91207423236e-163
9.91207423236e-163
9.91207423236e-163
9.91207423237e-163
9.91207423237e-163
9.91207423237e-163
9.91207423237e-163
9.91207423238e-163
9.91207423238e-163
9.91207423238e-163
9.91207423239e-163
9.91207423292e-163
9.91207426393e-163
9.91207609733e-163
9.91218058086e-163
9.91817982957e-163
1.0060208234e-162
7.4870058533e-63
3.10320386181e-12
2.39040709771e-08
8.36951757756e-06
1.73121696398e-05
2.19913623164e-05
2.40158254865e-05
2.48218751586e-05
2.51311560002e-05
2.52722955453e-05
2.53703173003e-05
2.54593752539e-05
2.55427416784e-05
2.56274474022e-05
2.57111825527e-05
2.57941122272e-05
2.58766948613e-05
2.59588286854e-05
2.6040819801e-05
2.6123182033e-05
2.62025371265e-05
2.62851160924e-05
2.63679016822e-05
2.64512020125e-05
2.65345794631e-05
2.66184282977e-05
2.66988884892e-05
2.67825608253e-05
2.68658791491e-05
2.69483701137e-05
2.70299913479e-05
2.71104539105e-05
2.71858750016e-05
2.7262366392e-05
2.73363707476e-05
2.74074153909e-05
2.74747399373e-05
2.75382481889e-05
2.75943265976e-05
2.76489211062e-05
2.76983935516e-05
2.77425435647e-05
2.77808601304e-05
2.78130325654e-05
2.78390213322e-05
2.7858734048e-05
2.78721216173e-05
2.78831906317e-05
9.91207423213e-163
9.91207423213e-163
9.91207423214e-163
9.91207423214e-163
9.91207423214e-163
9.91207423214e-163
9.91207423215e-163
9.91207423215e-163
9.91207423215e-163
9.91207423215e-163
9.91207423216e-163
9.91207423216e-163
9.91207423216e-163
9.91207423216e-163
9.91207423217e-163
9.91207423219e-163
9.91207423345e-163
9.91207430864e-163
9.91207879612e-163
9.91233581846e-163
9.92724430099e-163
1.0191765587e-162
1.06737578737e-39
5.23750031995e-10
1.52136827485e-07
1.03997567916e-05
1.82977318565e-05
2.22124090071e-05
2.3878673466e-05
2.45413981738e-05
2.48036821301e-05
2.49416257876e-05
2.50452923917e-05
2.51450058651e-05
2.52416298393e-05
2.53366726036e-05
2.54302065456e-05
2.55228961539e-05
2.56145911641e-05
2.57027831442e-05
2.57935597778e-05
2.58837402128e-05
2.59739354386e-05
2.60640686045e-05
2.61511579297e-05
2.62412477308e-05
2.63312979438e-05
2.64214193359e-05
2.65111531979e-05
2.66007037267e-05
2.66863652678e-05
2.67741522233e-05
2.68609181116e-05
2.69458239229e-05
2.70288903061e-05
2.71063778679e-05
2.71843210228e-05
2.72589256189e-05
2.73295100731e-05
2.73958403876e-05
2.74575426078e-05
2.75144612434e-05
2.75627077145e-05
2.7608596267e-05
2.76483665591e-05
2.76818149504e-05
2.77088103489e-05
2.77292675764e-05
2.77431573736e-05
2.77543028524e-05
9.91207423195e-163
9.91207423195e-163
9.91207423195e-163
9.91207423196e-163
9.91207423196e-163
9.91207423196e-163
9.91207423196e-163
9.91207423197e-163
9.91207423197e-163
9.91207423197e-163
9.91207423197e-163
9.91207423197e-163
9.91207423198e-163
9.91207423198e-163
9.91207423198e-163
9.91207423204e-163
9.91207423534e-163
9.9120744292e-163
9.91208577039e-163
9.91271984695e-163
9.94853574815e-163
1.04470258718e-162
1.03908039928e-20
3.0677221908e-09
1.73560897891e-06
1.22817408065e-05
1.90937095051e-05
2.23243453276e-05
2.36865873604e-05
2.42303458762e-05
2.44578786815e-05
2.45930425502e-05
2.47079735277e-05
2.48177132713e-05
2.49250755252e-05
2.503019845e-05
2.51311440792e-05
2.52335349066e-05
2.53346805107e-05
2.54350252146e-05
2.55344873412e-05
2.56304090659e-05
2.5729154958e-05
2.58271779669e-05
2.59249835137e-05
2.60222136801e-05
2.6116039449e-05
2.62128206623e-05
2.63087919397e-05
2.64043536629e-05
2.64987266246e-05
2.65886779545e-05
2.66803178052e-05
2.67701258758e-05
2.68575951082e-05
2.69423803266e-05
2.7020771229e-05
2.70988965204e-05
2.71728603523e-05
2.72424613285e-05
2.73070148529e-05
2.73661597094e-05
2.74196829663e-05
2.74638327868e-05
2.75052181698e-05
2.75400036661e-05
2.75680548731e-05
2.75893194673e-05
2.76037817094e-05
2.76150667484e-05
9.91207423179e-163
9.91207423179e-163
9.9120742318e-163
9.9120742318e-163
9.9120742318e-163
9.9120742318e-163
9.9120742318e-163
9.91207423181e-163
9.91207423181e-163
9.91207423181e-163
9.91207423181e-163
9.91207423182e-163
9.91207423182e-163
9.91207423182e-163
9.91207423182e-163
9.91207423196e-163
9.91207423971e-163
9.91207468401e-163
9.91209998926e-163
9.91347617453e-163
9.98754473651e-163
1.70293391203e-64
7.31779388583e-15
6.78817843289e-09
4.05238457198e-06
1.39317181866e-05
1.96790231941e-05
2.23356371042e-05
2.34365956776e-05
2.38852834475e-05
2.40901203309e-05
2.42303216387e-05
2.43559324606e-05
2.44765821951e-05
2.45917408046e-05
2.47075781252e-05
2.48217779266e-05
2.49342605321e-05
2.50450179423e-05
2.5151593831e-05
2.52604323477e-05
2.53679019872e-05
2.54749418568e-05
2.557790017e-05
2.56835395373e-05
2.57885337833e-05
2.5892828968e-05
2.59931293783e-05
2.60957621048e-05
2.61970805004e-05
2.62974360251e-05
2.6396052764e-05
2.64895543534e-05
2.65840533951e-05
2.66759466737e-05
2.67649635708e-05
2.68504212786e-05
2.69285296306e-05
2.70058833515e-05
2.70784202708e-05
2.71455570948e-05
2.72070683198e-05
2.7262785758e-05
2.7308816816e-05
2.73517945662e-05
2.73879146796e-05
2.74170751388e-05
2.74391870871e-05
2.74542309775e-05
2.74656375582e-05
9.91207423165e-163
9.91207423165e-163
9.91207423166e-163
9.91207423166e-163
9.91207423166e-163
9.91207423166e-163
9.91207423166e-163
9.91207423167e-163
9.91207423167e-163
9.91207423167e-163
9.91207423167e-163
9.91207423168e-163
9.91207423168e-163
9.91207423168e-163
9.91207423169e-163
9.91207423209e-163
9.91207425546e-163
9.91207562569e-163
9.91215351484e-163
9.91657093287e-163
1.00400416174e-162
4.91411065925e-63
8.00475354678e-13
1.45115377274e-08
6.52290646721e-06
1.53499711375e-05
2.01252594544e-05
2.22448189247e-05
2.31345499802e-05
2.35062126121e-05
2.37016738598e-05
2.38506930771e-05
2.39883615276e-05
2.41183080831e-05
2.42483522755e-05
2.43757756503e-05
2.44976323497e-05
2.46203704972e-05
2.47410612199e-05
2.48603527853e-05
2.49748718525e-05
2.5091584975e-05
2.52068777565e-05
2.53214810633e-05
2.54315296372e-05
2.55443090009e-05
2.5655685186e-05
2.57662962863e-05
2.58721314496e-05
2.59800541596e-05
2.60861829827e-05
2.6190473512e-05
2.62889343316e-05
2.63883266497e-05
2.64847227502e-05
2.65778533522e-05
2.66670744603e-05
2.6748712744e-05
2.68292235591e-05
2.69044869948e-05
2.69743866802e-05
2.70383430554e-05
2.70960721397e-05
2.71436206943e-05
2.71881504815e-05
2.72255098453e-05
2.72557297008e-05
2.72787237372e-05
2.7294370666e-05
2.73059762213e-05
9.91207423153e-163
9.91207423153e-163
9.91207423153e-163
9.91207423154e-163
9.91207423154e-163
9.91207423154e-163
9.91207423154e-163
9.91207423154e-163
9.91207423155e-163
9.91207423155e-163
9.91207423155e-163
9.91207423155e-163
9.91207423155e-163
9.91207423156e-163
9.91207423158e-163
9.91207423276e-163
9.91207430115e-163
9.91207826431e-163
9.91229985064e-163
9.92491188836e-163
1.01608733431e-162
2.66232988158e-40
1.63650216198e-10
5.49029808824e-08
8.93744548359e-06
1.65278314606e-05
2.03953454099e-05
2.20831102925e-05
2.27926993696e-05
2.31067544994e-05
2.32984658283e-05
2.34552159902e-05
2.36053770527e-05
2.37512402309e-05
2.38900464846e-05
2.40290682936e-05
2.41652367152e-05
2.4298641647e-05
2.44267741835e-05
2.45562344796e-05
2.46834666303e-05
2.48058973553e-05
2.49299382947e-05
2.50526521222e-05
2.51739416372e-05
2.52906971956e-05
2.54096739067e-05
2.55269548559e-05
2.56393470229e-05
2.57533275898e-05
2.58653630509e-05
2.59754441761e-05
2.60791689692e-05
2.61835937017e-05
2.6284588883e-05
2.63818851844e-05
2.64749155744e-05
2.65599499839e-05
2.66436695299e-05
2.67217921754e-05
2.67940950249e-05
2.68602515802e-05
2.69201391699e-05
2.69692142248e-05
2.70154126879e-05
2.70541761691e-05
2.70854321145e-05
2.71091374049e-05
2.71252788375e-05
2.71369253298e-05
9.91207423142e-163
9.91207423142e-163
9.91207423143e-163
9.91207423143e-163
9.91207423143e-163
9.91207423143e-163
9.91207423143e-163
9.91207423143e-163
9.91207423144e-163
9.91207423144e-163
9.91207423144e-163
9.91207423144e-163
9.91207423144e-163
9.91207423145e-163
9.91207423151e-163
9.91207423536e-163
9.91207445745e-163
9.91208725115e-163
9.91279269218e-163
9.95186161213e-163
1.04884998364e-162
1.46776324081e-20
3.04512096381e-09
1.3530566002e-06
1.11323223587e-05
1.7468629932e-05
2.05359566882e-05
2.18512963658e-05
2.24189383423e-05
2.26911855975e-05
2.28821419934e-05
2.30529101108e-05
2.32160295433e-05
2.33714801363e-05
2.35259706027e-05
2.36764641101e-05
2.38208490494e-05
2.39650396595e-05
2.41067994634e-05
2.42428018861e-05
2.43796333261e-05
2.45147502135e-05
2.4644483148e-05
2.47757155769e-05
2.49053244593e-05
2.5029614001e-05
2.51555471558e-05
2.52797410256e-05
2.53985072898e-05
2.55187345344e-05
2.56367625301e-05
2.57520091222e-05
2.58608740682e-05
2.59700446738e-05
2.60753858931e-05
2.61770707512e-05
2.62703476462e-05
2.63625639909e-05
2.64493298807e-05
2.65303464525e-05
2.66054116229e-05
2.66739002179e-05
2.67314978646e-05
2.67862374927e-05
2.68336013994e-05
2.68735788818e-05
2.69059088748e-05
2.69304241357e-05
2.69471654591e-05
2.69589761628e-05
9.91207423132e-163
9.91207423133e-163
9.91207423133e-163
9.91207423133e-163
9.91207423133e-163
9.91207423133e-163
9.91207423133e-163
9.91207423134e-163
9.91207423134e-163
9.91207423134e-163
9.91207423134e-163
9.91207423134e-163
9.91207423135e-163
9.91207423135e-163
9.91207423155e-163
9.91207424271e-163
9.91207488461e-163
9.91211198031e-163
9.91421055396e-163
1.0006129364e-162
1.38780587802e-63
4.4425486343e-14
8.03331203533e-09
4.06873835076e-06
1.30139929451e-05
1.81565794016e-05
2.05285658546e-05
2.15582154953e-05
2.20111010504e-05
2.22631030568e-05
2.24600254185e-05
2.26430033041e-05
2.2816224365e-05
2.29877412382e-05
2.31514366358e-05
2.33138886247e-05
2.34694044177e-05
2.36243824161e-05
2.37766315639e-05
2.39222546628e-05
2.40689408442e-05
2.42131506539e-05
2.43514801311e-05
2.44912274898e-05
2.46287499226e-05
2.47608806326e-05
2.48944015027e-05
2.50257190371e-05
2.51508293987e-05
2.52770531655e-05
2.54007425088e-05
2.55214427252e-05
2.56349622847e-05
2.57490184019e-05
2.58588135089e-05
2.59641753997e-05
2.60610189683e-05
2.61565414748e-05
2.62463509836e-05
2.63302384864e-05
2.64079981569e-05
2.64746970991e-05
2.65384696783e-05
2.659481303e-05
2.66436226484e-05
2.66846709854e-05
2.67178781738e-05
2.67431414613e-05
2.67604818952e-05
2.67724465119e-05
9.91207423124e-163
9.91207423124e-163
9.91207423124e-163
9.91207423124e-163
9.91207423124e-163
9.91207423124e-163
9.91207423125e-163
9.91207423125e-163
9.91207423125e-163
9.91207423125e-163
9.91207423125e-163
9.91207423126e-163
9.91207423126e-163
9.91207423127e-163
9.9120742321e-163
9.91207427946e-163
9.91207698188e-163
9.91222583894e-163
9.92045354289e-163
1.00973895632e-162
9.40597826194e-63
5.45143202634e-12
2.23318933754e-08
6.90632661847e-06
1.45623109518e-05
1.85921506421e-05
2.04011765807e-05
2.12020502953e-05
2.15820921192e-05
2.1823750853e-05
2.20281771808e-05
2.22244745934e-05
2.24109102855e-05
2.25948027568e-05
2.27738048763e-05
2.2945164439e-05
2.31152482208e-05
2.32783170634e-05
2.34410620221e-05
2.35966661274e-05
2.37527288044e-05
2.39058413732e-05
2.40528641203e-05
2.42008406132e-05
2.43464735685e-05
2.44857956421e-05
2.46264922201e-05
2.47645076409e-05
2.48962435282e-05
2.5028775917e-05
2.51581573164e-05
2.52801852603e-05
2.54027468671e-05
2.55209468847e-05
2.56348899895e-05
2.57403214339e-05
2.58445628771e-05
2.59431772936e-05
2.60359401829e-05
2.61182859471e-05
2.61981512001e-05
2.62710413597e-05
2.63366273075e-05
2.63945943811e-05
2.64448286372e-05
2.64873114293e-05
2.65172515375e-05
2.6543458806e-05
2.65614408263e-05
2.6573610255e-05
9.91207423116e-163
9.91207423116e-163
9.91207423116e-163
9.91207423116e-163
9.91207423116e-163
9.91207423117e-163
9.91207423117e-163
9.91207423117e-163
9.91207423117e-163
9.91207423117e-163
9.91207423117e-163
9.91207423118e-163
9.91207423118e-163
9.91207423124e-163
9.91207423451e-163
9.91207442053e-163
9.9120849701e-163
9.91266005156e-163
9.94416237446e-163
1.04069561481e-162
1.73613480432e-29
2.06452959443e-09
4.9458949266e-07
9.53508656266e-06
1.57386547866e-05
1.88201596134e-05
2.01844844501e-05
2.08063482842e-05
2.11378703962e-05
2.13765261035e-05
2.1595850818e-05
2.18026688978e-05
2.20054090624e-05
2.21990980213e-05
2.23901471186e-05
2.25729827104e-05
2.27542393012e-05
2.29278680295e-05
2.31007091635e-05
2.32664838921e-05
2.34320855288e-05
2.35947039374e-05
2.37499963346e-05
2.39062363613e-05
2.40592750962e-05
2.42060357808e-05
2.43534884051e-05
2.44943517052e-05
2.46358358441e-05
2.47741000952e-05
2.49092670663e-05
2.50366112746e-05
2.51638282442e-05
2.52867588949e-05
2.54006675194e-05
2.55137034679e-05
2.56212636507e-05
2.57231694546e-05
2.58143428386e-05
2.59033308089e-05
2.59853241776e-05
2.60600778567e-05
2.61275963358e-05
2.61871964996e-05
2.62343807198e-05
2.62778744893e-05
2.63130310095e-05
2.63398924828e-05
2.6358471985e-05
2.6370799269e-05
9.91207423108e-163
9.91207423109e-163
9.91207423109e-163
9.91207423109e-163
9.91207423109e-163
9.91207423109e-163
9.91207423109e-163
9.9120742311e-163
9.9120742311e-163
9.9120742311e-163
9.9120742311e-163
9.9120742311e-163
9.91207423111e-163
9.91207423133e-163
9.91207424364e-163
9.91207493632e-163
9.91211418832e-163
9.91430200858e-163
1.00097836369e-162
1.33607612198e-63
3.75174014254e-14
7.43219279e-09
3.32572097595e-06
1.17036392849e-05
1.65656525357e-05
1.8867656975e-05
1.98937819557e-05
2.03864725894e-05
2.06836517714e-05
2.09311621731e-05
2.11603928529e-05
2.13836862713e-05
2.15962177007e-05
2.18022938831e-05
2.20053065388e-05
2.21992774568e-05
2.2391378978e-05
2.25754327757e-05
2.27582740555e-05
2.29334670842e-05
2.31084188092e-05
2.32793786741e-05
2.34432767782e-05
2.36078806692e-05
2.37652014667e-05
2.39227423284e-05
2.40768454754e-05
2.42237991013e-05
2.43713272503e-05
2.45153278433e-05
2.46512214396e-05
2.478749454e-05
2.49192999202e-05
2.50421456233e-05
2.51641821129e-05
2.52807934672e-05
2.53917047069e-05
2.54920424569e-05