/*--------------------------------*- C++ -*----------------------------------*\
| =========                 |                                                 |
| \\      /  F ield         | foam-extend: Open Source CFD                    |
|  \\    /   O peration     | Version:     4.1                                |
|   \\  /    A nd           | Web:         http://www.foam-extend.org         |
|    \\/     M anipulation  |                                                 |
\*---------------------------------------------------------------------------*/
FoamFile
{
    version     2.0;
    format      ascii;
    class       volScalarField;
    location    "0.0005";
    object      Mach;
}
// * * * * * * * * * * * * * * * * * * * * * * * * * * * * * * * * * * * * * //

dimensions      [0 0 0 0 0 0 0];

internalField   nonuniform List<scalar> 
8400
(
56.1971337761
56.1971337761
56.1971337761
56.1971337762
56.1971337762
56.1971337762
56.1971337763
56.1971337763
56.1971337763
56.1971337764
56.1971337764
56.1971337764
56.1971337765
56.1971337765
56.1971337765
56.1971337765
56.1971337766
56.1971337766
56.1971337766
56.1971337766
56.1971337762
56.197133745
56.1971318907
56.1970240233
56.1916668098
50.7498333491
17.5433540101
8.20629098599
3.66105157326
1.94107972031
1.02329223453
0.550463854801
0.334992816057
0.255502292985
0.230837439243
0.222101465693
0.216995723284
0.212528235079
0.208046724051
0.203452270973
0.198720732724
0.193854595808
0.188933567518
0.183970606595
0.178992511937
0.174028428768
0.169106641188
0.164249662966
0.159477843046
0.154815912308
0.150302832663
0.145940626883
0.141740126111
0.137761468979
0.134002569196
0.130479101569
0.127213936619
0.124231718991
0.121545480295
0.119146428469
0.117032351108
0.115190183099
0.11361353858
0.112319911867
0.111278277383
0.110464289943
0.109854702355
0.109425685698
0.109154446326
0.109113242382
56.1971337828
56.1971337828
56.1971337829
56.1971337829
56.1971337829
56.1971337829
56.1971337829
56.1971337829
56.1971337829
56.1971337829
56.1971337829
56.1971337829
56.197133783
56.197133783
56.197133783
56.197133783
56.197133783
56.197133783
56.197133783
56.197133783
56.1971337799
56.1971335956
56.1971227665
56.1965020604
56.1696914752
31.2966283909
11.8355654708
5.45462923693
2.80635941245
1.47544962186
0.769128543046
0.420299339972
0.275401548714
0.227746228642
0.213013439925
0.206556645705
0.202021661613
0.197964463968
0.19410723552
0.190394813122
0.186818484677
0.183380347188
0.180085619247
0.17694171678
0.173954568015
0.171130613702
0.168475551056
0.165992623519
0.163684661182
0.161557155379
0.159615303337
0.157861982268
0.156298500401
0.154919560366
0.153715816833
0.152683679625
0.151822182301
0.151124820761
0.150584001226
0.150174515186
0.149861758535
0.149648733314
0.149519866704
0.149458269688
0.149445839577
0.14946226366
0.149489990474
0.14951416302
0.149523405364
0.149544853452
56.1971337865
56.1971337865
56.1971337865
56.1971337865
56.1971337865
56.1971337865
56.1971337865
56.1971337865
56.1971337865
56.1971337865
56.1971337865
56.1971337865
56.1971337865
56.1971337865
56.1971337865
56.1971337865
56.1971337865
56.1971337865
56.1971337865
56.1971337863
56.1971337721
56.1971329454
56.1970856289
56.1944601058
56.0906198364
19.0967445281
9.15309141913
4.05504874296
2.13610081376
1.11721235887
0.591651227765
0.353566840705
0.268717842521
0.243656896375
0.234995100747
0.23014569887
0.226279845795
0.222833636559
0.219683983711
0.216795473539
0.214152516461
0.211745727924
0.209565307207
0.207601555494
0.205844846056
0.204286200546
0.202916690952
0.201727211721
0.200709048445
0.199850905025
0.199142851558
0.19857771334
0.198146422827
0.197835372625
0.197631957272
0.197526475587
0.197509542757
0.197569871274
0.19769247814
0.19785906624
0.198056909115
0.198276688581
0.198512119593
0.198730303729
0.198933607718
0.199108206046
0.199244572198
0.199334981197
0.199372970613
0.199376633753
56.1971337886
56.1971337886
56.1971337886
56.1971337886
56.1971337886
56.1971337886
56.1971337886
56.1971337886
56.1971337886
56.1971337886
56.1971337886
56.1971337886
56.1971337886
56.1971337886
56.1971337886
56.1971337886
56.1971337886
56.1971337886
56.1971337886
56.1971337875
56.1971337183
56.1971296473
56.1968951522
56.1862146176
42.7973090758
15.4037983974
7.07165099779
3.2190252675
1.70098209065
0.899401606929
0.508508237801
0.353010172689
0.30499232626
0.290456554602
0.283924237526
0.279295989454
0.275290909613
0.27166689904
0.268362154125
0.26534940408
0.262609926713
0.260130171142
0.257895611217
0.255892315934
0.254106409666
0.252524504824
0.251134039889
0.249922726487
0.248878706254
0.247987231424
0.247234502691
0.246611532911
0.246109905257
0.245718279935
0.245424697466
0.245214664707
0.245076884129
0.245005191266
0.244996009828
0.245012142648
0.24505861228
0.245123400836
0.245197026838
0.24527167237
0.245337808135
0.245387559719
0.245414113007
0.245412391125
0.245378279442
0.245330918702
56.19713379
56.19713379
56.19713379
56.19713379
56.19713379
56.19713379
56.19713379
56.19713379
56.19713379
56.19713379
56.19713379
56.19713379
56.19713379
56.19713379
56.19713379
56.19713379
56.19713379
56.19713379
56.1971337899
56.1971337857
56.1971335344
56.1971187508
56.1962670285
56.1597457086
27.6113047448
11.2488695532
5.11615935974
2.66906119944
1.42039137215
0.778301592258
0.490704597921
0.390825731991
0.361678563789
0.351263421759
0.34505154677
0.339951959194
0.335311973366
0.331014093697
0.327025302015
0.323327123641
0.319904123165
0.316741323922
0.313825973725
0.311147283717
0.308693780325
0.306453690823
0.304414339275
0.30256282241
0.3008859753
0.299372648583
0.298012988763
0.296796865825
0.295718455401
0.294767189568
0.293938179183
0.293190573465
0.292541380074
0.291982680872
0.291502673991
0.291088003809
0.29072539542
0.290410380789
0.290137673781
0.289901825328
0.289694254337
0.289508809871
0.289340361245
0.289185123871
0.289039827969
0.288927272151
56.197133791
56.197133791
56.197133791
56.197133791
56.197133791
56.197133791
56.197133791
56.197133791
56.197133791
56.197133791
56.197133791
56.197133791
56.197133791
56.197133791
56.197133791
56.197133791
56.197133791
56.197133791
56.1971337908
56.1971337798
56.1971331352
56.1970958592
56.1949980234
56.110662217
20.1420163351
9.64394773352
4.29880180464
2.28691579848
1.23867788457
0.722498121435
0.513273461543
0.447257634723
0.427015453876
0.417873380144
0.411210885941
0.405309503355
0.399793852356
0.394597701516
0.389698845361
0.385082839293
0.38073797912
0.376654977503
0.372823377286
0.369231861645
0.365870733158
0.362733995072
0.359809400762
0.357085503993
0.354552468919
0.352202737478
0.350041937948
0.348026229135
0.346172705657
0.344468651671
0.342903975896
0.341472511107
0.340165979731
0.338981475135
0.337910294737
0.336942287383
0.336070092119
0.335303903163
0.334606184847
0.33399241837
0.333456221426
0.332991072487
0.332593017087
0.332259340969
0.331987536183
0.331804439951
56.1971337916
56.1971337916
56.1971337916
56.1971337916
56.1971337916
56.1971337916
56.1971337916
56.1971337916
56.1971337916
56.1971337916
56.1971337916
56.1971337916
56.1971337916
56.1971337916
56.1971337916
56.1971337916
56.1971337916
56.1971337916
56.1971337912
56.1971337647
56.1971321675
56.1970379668
56.1922228272
51.6818900195
17.7811125247
8.34378869644
3.73206556996
2.0105554351
1.12276455473
0.710439063641
0.558261610146
0.512036305532
0.495997578588
0.486928107639
0.47948039343
0.4725819467
0.466079903743
0.459885314654
0.453986280628
0.448368806308
0.443025896935
0.437947345852
0.433122130497
0.428543459111
0.424211396548
0.420129068908
0.416240187646
0.412570406345
0.409110790629
0.405854388999
0.402791478034
0.399918537627
0.397231734156
0.394720790251
0.392379880843
0.390202280018
0.388188817549
0.38635424012
0.384647041453
0.38308920121
0.381671194093
0.380389937514
0.379246829393
0.378236582557
0.377354417931
0.376596182387
0.375958675346
0.375439436603
0.375036206943
0.374780999907
56.1971337921
56.1971337921
56.1971337921
56.1971337921
56.1971337921
56.1971337921
56.1971337921
56.1971337921
56.1971337921
56.1971337921
56.1971337921
56.1971337921
56.1971337921
56.1971337921
56.1971337921
56.1971337921
56.1971337921
56.1971337921
56.197133791
56.1971337234
56.1971297456
56.1969005555
56.1864820782
43.1165558939
15.5332960223
7.16898619989
3.29448473333
1.80402256322
1.05327382644
0.726842415437
0.615156945351
0.580660258048
0.566515383475
0.556977694744
0.548588638301
0.540684144086
0.533130810334
0.525893240706
0.518956769958
0.512307968708
0.505940272396
0.499844806175
0.494011006257
0.488433407283
0.483106413184
0.47801917204
0.47316926167
0.468552880966
0.464163466313
0.459994524334
0.456042276486
0.452304556369
0.448795235325
0.445466771942
0.442344543851
0.439421499635
0.436697289952
0.434166645863
0.431826688341
0.429674034948
0.42771050021
0.42593431572
0.424364350084
0.422952302325
0.421722983514
0.420670758556
0.419793139783
0.419087558265
0.418552565426
0.418225459858
56.1971337925
56.1971337925
56.1971337925
56.1971337925
56.1971337925
56.1971337925
56.1971337925
56.1971337925
56.1971337925
56.1971337925
56.1971337925
56.1971337925
56.1971337925
56.1971337925
56.1971337925
56.1971337925
56.1971337925
56.1971337925
56.1971337898
56.1971336296
56.1971240916
56.1965707762
56.1725540822
32.4388950945
12.0718502881
5.69944227797
2.9425319467
1.64764281367
1.01720606294
0.761642196854
0.678394168424
0.651017538077
0.637617540337
0.627390489703
0.618015514484
0.609060826243
0.6004477459
0.592154418785
0.584167086567
0.576479738574
0.569083742111
0.561969151176
0.555127977943
0.54855511833
0.542246499521
0.53619152811
0.530389262227
0.524836508588
0.51955393156
0.514483661541
0.509654122853
0.505061179482
0.50070295329
0.496580608777
0.492694932024
0.489041868466
0.485618487273
0.482451085856
0.479486768899
0.476756664406
0.474260277447
0.471997112211
0.46996485206
0.46816492051
0.466594716172
0.465253516662
0.464139980538
0.463252562255
0.462588924721
0.462193097715
56.1971337928
56.1971337928
56.1971337928
56.1971337928
56.1971337928
56.1971337928
56.1971337928
56.1971337928
56.1971337928
56.1971337928
56.1971337928
56.1971337928
56.1971337928
56.1971337928
56.1971337928
56.1971337928
56.1971337928
56.1971337927
56.1971337867
56.1971334259
56.1971124112
56.1959175957
56.1465459416
24.5443348679
10.721403107
4.90038261214
2.65150322693
1.53060199151
1.00765776678
0.809038708012
0.745424827977
0.722301270956
0.709007770921
0.697925779589
0.68752510282
0.67751420846
0.667842673125
0.658495788559
0.64946431554
0.640738195424
0.632316439667
0.624187845928
0.616346450904
0.608790221355
0.601540181202
0.594529337063
0.587789282648
0.581314752054
0.575106516738
0.569162048654
0.563481903128
0.558062399919
0.552902080649
0.548035547042
0.543401962257
0.539036267686
0.534938121151
0.531103714181
0.52754056444
0.524253076939
0.521242869214
0.518538963296
0.516081374635
0.513901218734
0.512001146581
0.510382053729
0.50904166046
0.507978554314
0.507189771649
0.506726923087
56.1971337931
56.1971337931
56.1971337931
56.1971337931
56.1971337931
56.1971337931
56.1971337931
56.1971337931
56.1971337931
56.1971337931
56.1971337931
56.1971337931
56.1971337931
56.1971337931
56.1971337931
56.1971337931
56.1971337931
56.1971337929
56.1971337806
56.1971330626
56.1970919701
56.1948064182
56.1048621213
19.7607954806
9.57999606708
4.34365333467
2.40722379386
1.44590227987
1.01882676237
0.865125119452
0.81509045313
0.794390599996
0.780659661477
0.768571830127
0.757079881765
0.745981530987
0.735232885419
0.724822724798
0.714741768496
0.704981168852
0.695572427379
0.686432233286
0.677598989978
0.669065983235
0.660828969827
0.652883931208
0.645225110028
0.637855852783
0.630771720922
0.624005611482
0.617492192304
0.611267114571
0.605331745511
0.599683957686
0.594333178389
0.589282496408
0.584564016475
0.580112704623
0.575975617078
0.572151589764
0.56864536918
0.565457587911
0.562592255706
0.560051140653
0.557834623546
0.555977774868
0.554416101647
0.553183120453
0.552272892499
0.551744911405
56.1971337933
56.1971337933
56.1971337933
56.1971337933
56.1971337933
56.1971337933
56.1971337933
56.1971337933
56.1971337933
56.1971337933
56.1971337933
56.1971337933
56.1971337933
56.1971337933
56.1971337933
56.1971337933
56.1971337933
56.1971337928
56.1971337661
56.1971321624
56.1970382375
56.1922579926
51.85965345
17.8806857814
8.48356400197
3.87893135284
2.20505636384
1.38920713804
1.04617156851
0.927194327081
0.886496373576
0.866983712003
0.852511754302
0.839319370235
0.82667783713
0.814444307283
0.802592007962
0.791138468875
0.779987531454
0.769186318781
0.758717145542
0.748581652886
0.738769752919
0.729274010943
0.720097661716
0.711267612258
0.70270836935
0.694456663221
0.686514257301
0.678882040179
0.671563036629
0.664561216639
0.657911635186
0.651539715421
0.645495895848
0.639782627342
0.634403716994
0.629366537981
0.624713219253
0.620374111162
0.616394203099
0.612773483139
0.609516394611
0.606629008941
0.604113418225
0.601969636303
0.600199549085
0.598801294148
0.597771317482
0.597180521632
56.1971337935
56.1971337935
56.1971337935
56.1971337935
56.1971337935
56.1971337935
56.1971337935
56.1971337935
56.1971337935
56.1971337935
56.1971337935
56.1971337935
56.1971337935
56.1971337935
56.1971337935
56.1971337935
56.1971337934
56.1971337923
56.1971337247
56.1971297854
56.1969051648
56.1868376367
43.7212620577
15.7826126431
7.39251003056
3.47527052951
2.03703113045
1.35692997427
1.08592627996
0.993241762699
0.958924001943
0.939906739464
0.924501746887
0.910125431291
0.89632761805
0.882924514595
0.869932025326
0.857333097547
0.845114113457
0.833266203954
0.821779848018
0.810643501312
0.799894990652
0.78944539364
0.779339565478
0.769563201167
0.760126126356
0.75101569852
0.74228102496
0.733835948351
0.725731900828
0.717972792965
0.71055634824
0.70348905269
0.696816961864
0.690466460996
0.684486526912
0.678883091649
0.67366512107
0.66883557175
0.664439276939
0.660404515944
0.656777602821
0.653557703934
0.650753498127
0.648366506894
0.646396336631
0.644840385384
0.643695800893
0.643045599873
56.1971337936
56.1971337936
56.1971337936
56.1971337936
56.1971337936
56.1971337936
56.1971337936
56.1971337936
56.1971337936
56.1971337936
56.1971337936
56.1971337936
56.1971337936
56.1971337936
56.1971337936
56.1971337936
56.1971337935
56.1971337908
56.1971336265
56.1971239738
56.1965693512
56.1729465615
32.6056066026
12.1715210012
6.00676689715
3.12553620829
1.90158482809
1.34604421219
1.13464623716
1.06195979356
1.03201334256
1.01293520607
0.996541604546
0.98095004946
0.96589940143
0.951313096852
0.937172403433
0.92345091198
0.910144853411
0.89728233399
0.884762104733
0.872632618547
0.860871331865
0.849480486284
0.838497561673
0.82783043689
0.817524624744
0.807573832099
0.797984783992
0.788753081193
0.779931184415
0.771436271796
0.763313177064
0.755573372396
0.748217230506
0.741297150085
0.734735608204
0.728586229427
0.722859908884
0.717560392194
0.712694006931
0.708264567081
0.704321670397
0.700785571612
0.69770709224
0.695086432856
0.692923390557
0.691215117993
0.689959198916
0.689252438369
56.1971337937
56.1971337937
56.1971337937
56.1971337937
56.1971337937
56.1971337937
56.1971337937
56.1971337937
56.1971337937
56.1971337937
56.1971337937
56.1971337937
56.1971337937
56.1971337937
56.1971337937
56.1971337937
56.1971337936
56.1971337865
56.1971333699
56.1971094529
56.1957691096
56.1421503519
23.8435121384
10.6600943879
4.97982685726
2.8224577698
1.79818056047
1.35378618872
1.19060384056
1.13251801905
1.10536880017
1.0859276152
1.0683844444
1.05159165975
1.03533340711
1.01957119617
1.00432321111
0.989480727028
0.975085975394
0.961120678419
0.947580830331
0.934497809888
0.921764169192
0.909438889963
0.897501804992
0.885957850231
0.874846951198
0.864070441312
0.853685391971
0.843685456197
0.834081078823
0.824920157569
0.816116024669
0.807722655863
0.799747869699
0.792198065214
0.785129161715
0.778456931865
0.772241257471
0.766484983106
0.761201610591
0.756397584896
0.75207425918
0.748285471387
0.744941532541
0.742094364474
0.739744618008
0.737889229026
0.736523994986
0.735762135319
56.1971337938
56.1971337938
56.1971337938
56.1971337938
56.1971337938
56.1971337938
56.1971337938
56.1971337938
56.1971337938
56.1971337938
56.1971337938
56.1971337938
56.1971337938
56.1971337938
56.1971337938
56.1971337938
56.1971337935
56.1971337772
56.1971328437
56.1970807263
56.1942637377
55.971448569
19.1190891952
9.34488883612
4.35572556685
2.56699623651
1.72642208612
1.37781233453
1.25235209493
1.2046797345
1.17905467326
1.15883039423
1.14007774745
1.12204462848
1.10461955203
1.08766487215
1.07121628347
1.05525907083
1.03978349918
1.02482510096
1.0102596656
0.996145817468
0.982462476288
0.969264186065
0.956429618211
0.944015418168
0.932016909421
0.92048546085
0.909319461669
0.898577083438
0.888251383952
0.878355981924
0.868942584107
0.859920678723
0.851350144382
0.843234600993
0.835587826253
0.828470044633
0.82178435467
0.815597898206
0.809920478089
0.804755400972
0.800106492198
0.79603080878
0.79243412467
0.789371541391
0.7868411412
0.78484248513
0.783371386452
0.782556871906
56.1971337939
56.1971337939
56.1971337939
56.1971337939
56.1971337939
56.1971337939
56.1971337939
56.1971337939
56.1971337939
56.1971337939
56.1971337939
56.1971337939
56.1971337939
56.1971337939
56.1971337939
56.1971337939
56.1971337931
56.1971337432
56.1971308589
56.1969674106
56.1894803622
47.4868125994
16.8481439974
8.04617036091
3.83248320463
2.35774409854
1.68284359879
1.41530763006
1.31858074468
1.27804999329
1.25295107643
1.23168880284
1.21163737676
1.19235955565
1.17362228687
1.15545894358
1.13790842693
1.12083150433
1.10427959817
1.08822310509
1.07271563087
1.05762329895
1.04300368239
1.02884026127
1.01518850866
1.00192316112
0.989113076918
0.976739696662
0.964874695606
0.953397903942
0.942379773012
0.931815458468
0.921772833763
0.912145145387
0.90300122935
0.894346272901
0.886191708487
0.878599996381
0.871471506506
0.864876493598
0.858819241409
0.853310644652
0.848355556559
0.844012451614
0.840175745547
0.836908135755
0.834207151044
0.83207044876
0.830494990601
0.82962926607
56.197133794
56.197133794
56.197133794
56.197133794
56.197133794
56.197133794
56.197133794
56.197133794
56.197133794
56.197133794
56.197133794
56.197133794
56.197133794
56.197133794
56.197133794
56.197133794
56.1971337915
56.1971336476
56.1971254287
56.1966628665
56.1771132445
34.4622534778
12.6691430461
6.64885666648
3.3905431076
2.19308645793
1.6651768298
1.46303924884
1.38762217373
1.35197049536
1.32678675469
1.30440076896
1.2830086865
1.26234552029
1.24241061484
1.22303389578
1.20425315711
1.18605747725
1.16848167428
1.15138289329
1.13481808593
1.11882947108
1.10328497985
1.08823279065
1.07366690165
1.05964324935
1.04603150752
1.03290284348
1.02030711213
1.00813117431
0.996441292072
0.985233563375
0.974581443304
0.964373053294
0.954677650981
0.94550723894
0.936870950265
0.928829088958
0.921279568615
0.914296469898
0.90788638281
0.902056320536
0.896807025925
0.892210309434
0.888143875873
0.884679744613
0.881815481866
0.879548266803
0.877871977409
0.876958464145
56.1971337941
56.1971337941
56.1971337941
56.1971337941
56.1971337941
56.1971337941
56.1971337941
56.1971337941
56.1971337941
56.1971337941
56.1971337941
56.1971337941
56.1971337941
56.1971337941
56.1971337941
56.1971337939
56.1971337859
56.1971333225
56.197107125
56.1956621893
56.1397866212
23.5296638506
10.6826651288
5.11544324888
3.02541574811
2.0717692509
1.66967389811
1.51862620828
1.45862095037
1.42599007379
1.40033540689
1.37664204849
1.35391616565
1.33201356758
1.31074914075
1.29016568693
1.27029389223
1.25098823244
1.23227968223
1.21422544165
1.19667628453
1.17967351386
1.1632816369
1.14735360101
1.13194658216
1.11712514475
1.1027475727
1.08887941284
1.07558324458
1.06273482261
1.05039854188
1.03858160248
1.02735158012
1.01659209594
1.00637983673
0.996714228014
0.98767659406
0.979146132605
0.9712032792
0.963854270313
0.957104465355
0.95096763964
0.945512599013
0.940610404963
0.936337605277
0.932687961086
0.929665960526
0.927269967012
0.925493556431
0.924533288341
56.1971337941
56.1971337941
56.1971337941
56.1971337941
56.1971337941
56.1971337941
56.1971337941
56.1971337941
56.1971337941
56.1971337941
56.1971337941
56.1971337941
56.1971337941
56.1971337941
56.1971337941
56.1971337937
56.1971337707
56.197132436
56.1970558569
56.1930319408
53.6465716503
18.4913930424
9.05747936021
4.36284685624
2.73146824592
1.9926139109
1.69390467483
1.58058624257
1.53114993456
1.49992010471
1.47339535464
1.44838625827
1.42438559926
1.40110418375
1.37865987309
1.35688156944
1.33587145878
1.31546983206
1.295714154
1.27666374119
1.2581452562
1.24022333378
1.22295356656
1.20617350042
1.18995774385
1.17435322111
1.15922776239
1.14464406557
1.13067777068
1.1171856503
1.10423702169
1.09183711577
1.08006301627
1.06877898497
1.05807488974
1.04795332472
1.03848764868
1.02955687802
1.02124175937
1.01354801257
1.0064809749
1.00012614107
0.994342697035
0.989213281533
0.984738054656
0.980917370795
0.977751162839
0.97523339507
0.973359771382
0.972354910591
56.1971337942
56.1971337942
56.1971337942
56.1971337942
56.1971337942
56.1971337942
56.1971337942
56.1971337942
56.1971337942
56.1971337942
56.1971337942
56.1971337942
56.1971337942
56.1971337942
56.1971337942
56.1971337925
56.1971336954
56.19712824
56.1968279715
56.1843354965
41.1934345334
15.3140597533
7.49438929507
3.77250539032
2.50631543699
1.95125818654
1.73331903958
1.64733844998
1.60450167617
1.57364395296
1.54600908574
1.51961484619
1.49425251339
1.46968666341
1.44593570195
1.42305002691
1.40083961324
1.37943002018
1.35864171902
1.33861334575
1.31916265113
1.30035072301
1.28222582607
1.26463244478
1.24763185414
1.23129287115
1.21545503303
1.20019674561
1.18558392216
1.17147030724
1.15793715197
1.14506010531
1.13268972177
1.12092420696
1.10975886303
1.09927510811
1.08933781013
1.08003592852
1.07137130723
1.06343376996
1.05607617099
1.04938621599
1.04336665668
1.03802224615
1.03335757628
1.02936766746
1.02613244032
1.02349257801
1.0215220702
1.02047269536
56.1971337943
56.1971337943
56.1971337943
56.1971337943
56.1971337943
56.1971337943
56.1971337943
56.1971337943
56.1971337943
56.1971337943
56.1971337943
56.1971337943
56.1971337943
56.1971337943
56.1971337941
56.1971337875
56.1971334103
56.197112373
56.1959645721
56.1519973419
25.9226950559
11.1856758783
5.51950644701
3.3085536819
2.34653231427
1.94129437748
1.78385472914
1.71687181043
1.67798736239
1.64682995604
1.61782954291
1.59012056935
1.56333729869
1.53756200477
1.51259992481
1.48856089615
1.46525413599
1.44279899446
1.42101763129
1.40003510208
1.37967477838
1.35998466545
1.34104818463
1.32266917666
1.30493005645
1.28788608008
1.27137575586
1.25555231224
1.24025559066
1.22556703071
1.21147934673
1.19808522233
1.18523037699
1.17299924748
1.16148235269
1.15052380853
1.14021623275
1.13056194017
1.12166271889
1.11335269428
1.10572883646
1.09879571439
1.09255143034
1.08700644366
1.08224528691
1.07810102597
1.07465790912
1.07190686649
1.06984097244
1.06875018696
56.1971337943
56.1971337943
56.1971337943
56.1971337943
56.1971337943
56.1971337943
56.1971337943
56.1971337943
56.1971337943
56.1971337943
56.1971337943
56.1971337943
56.1971337943
56.1971337943
56.1971337939
56.1971337693
56.1971323749
56.1970537076
56.1929654093
53.6962850808
18.574398527
9.21149194418
4.54951446762
2.95304800923
2.24499515425
1.95713371258
1.84254875487
1.78795868343
1.75119478378
1.71908582263
1.68880188294
1.65963554971
1.63162757366
1.60460641589
1.57846141551
1.55330809724
1.52893888008
1.50547747924
1.48273620369
1.4608508038
1.43961632189
1.41911185847
1.39938904115
1.38025349583
1.36188045181
1.34408054107
1.32693935058
1.31052080598
1.29465345785
1.27942512052
1.26492231225
1.25096618125
1.2376595927
1.22509392828
1.21309713811
1.20177263356
1.19111987675
1.18123772543
1.17195530258
1.16337779707
1.15551027109
1.1484414394
1.14199230308
1.13626719345
1.13126586864
1.12698456489
1.12341499853
1.12055400515
1.11839459843
1.11726502366
56.1971337943
56.1971337943
56.1971337943
56.1971337943
56.1971337943
56.1971337943
56.1971337943
56.1971337943
56.1971337943
56.1971337943
56.1971337943
56.1971337943
56.1971337943
56.1971337943
56.197133792
56.1971336605
56.1971264272
56.1967357358
56.1811887101
38.1538505025
14.5053133685
7.39398845561
3.86359373134
2.69743191169
2.19384365271
1.99270350889
1.9072009083
1.86009530175
1.82368499332
1.79046335676
1.75878820228
1.72825296068
1.69894634823
1.6707103272
1.64340829707
1.61717573694
1.59178847802
1.56737293437
1.54371023783
1.52096378617
1.49890954225
1.47771554621
1.45716848335
1.43733897643
1.41831181579
1.39988018174
1.38222472512
1.36514632213
1.34874964725
1.33311788712
1.3180590272
1.30367408013
1.29004837518
1.27701258839
1.26466448489
1.25309686393
1.24213393419
1.23187830314
1.22233607602
1.21361184318
1.20551700039
1.19815629982
1.19153300244
1.18564597352
1.18049456891
1.17617008777
1.17247243189
1.16950289659
1.16725051252
1.16608253161
56.1971337944
56.1971337944
56.1971337944
56.1971337944
56.1971337944
56.1971337944
56.1971337944
56.1971337944
56.1971337944
56.1971337944
56.1971337944
56.1971337944
56.1971337944
56.1971337942
56.1971337824
56.1971331289
56.1970976031
56.1952173569
56.1279115348
21.9747829771
10.5476473141
5.28438731493
3.36303074987
2.52912443167
2.18252333143
2.04170767166
1.97514380982
1.93200657644
1.89513582021
1.86060784944
1.82745628289
1.79570912756
1.76516971294
1.73577953176
1.70737197469
1.68010365367
1.65371952366
1.62838566905
1.60386791265
1.58030772667
1.55748599422
1.53556600675
1.51433144944
1.49395601153
1.47421298393
1.45530837464
1.43701695013
1.41942858353
1.40264678716
1.38646140749
1.37097273452
1.35628353014
1.34219737104
1.32881861894
1.31624834067
1.30429160886
1.29306030399
1.28255657377
1.27288878769
1.26385513426
1.25557158936
1.24803171066
1.24134528022
1.23530542246
1.23001907456
1.22547618165
1.22167422803
1.2186036843
1.21625908908
1.21505512657
56.1971337944
56.1971337944
56.1971337944
56.1971337944
56.1971337944
56.1971337944
56.1971337944
56.1971337944
56.1971337944
56.1971337944
56.1971337944
56.1971337944
56.1971337944
56.1971337932
56.1971337239
56.197129907
56.1969242733
56.1882756058
46.3162869417
16.8356281686
8.38437471797
4.33175631936
3.00956913658
2.43545042069
2.20092619426
2.10002159362
2.04469376852
2.00293720703
1.96515345987
1.92929877693
1.89483707176
1.86184150611
1.83013172674
1.79964172139
1.77020817366
1.7419783466
1.71478347055
1.6884906406
1.66324294772
1.63881388248
1.61537731997
1.59268492097
1.57092136544
1.54985282899
1.52966610869
1.51013678882
1.49135819305
1.47341981233
1.45610306184
1.43962207346
1.42375912144
1.40862068238
1.39431736654
1.38063061707
1.36767851764
1.35545866502
1.34409728612
1.33337240387
1.32340281945
1.31418806491
1.30584333148
1.29814780172
1.29122287761
1.28505948044
1.27964952301
1.27499101314
1.2711959478
1.26802633951
1.26558728424
1.26434612906
56.1971337945
56.1971337945
56.1971337945
56.1971337945
56.1971337945
56.1971337945
56.1971337945
56.1971337945
56.1971337945
56.1971337945
56.1971337945
56.1971337945
56.1971337943
56.1971337867
56.1971333658
56.1971106215
56.1959128573
56.1527814831
26.3522059004
11.4297784612
6.15051504499
3.68407390018
2.78019097564
2.39842040536
2.23983632556
2.16377661037
2.11436393294
2.07264149922
2.03362542787
1.99640888471
1.96076320986
1.92648895613
1.89368953066
1.86217935445
1.83190354351
1.80266618463
1.77464546842
1.74755513489
1.72158243509
1.69657145674
1.67237085388
1.6491653556
1.62671032301
1.60520596442
1.58441792736
1.56442531346
1.54532604562
1.52687069319
1.50929333679
1.49235622139
1.47616878644
1.46084745292
1.44616409803
1.43222058294
1.4191515559
1.4067171204
1.39504580893
1.38426199708
1.37411308528
1.36474132121
1.35613933258
1.34831542007
1.34137828992
1.3350930706
1.32958090131
1.32482824352
1.32082578864
1.31756401425
1.31503192311
1.31375095136
56.1971337945
56.1971337945
56.1971337945
56.1971337945
56.1971337945
56.1971337945
56.1971337945
56.1971337945
56.1971337945
56.1971337945
56.1971337945
56.1971337945
56.1971337935
56.1971337409
56.1971308238
56.1969737936
56.190146851
49.2606760702
17.6062338989
8.88651090708
4.63808618195
3.24941240418
2.65069404068
2.40197882826
2.29174214773
2.23000528309
2.1830098374
2.14049425333
2.10024259617
2.06179030293
2.02497413284
1.98969905227
1.95575440758
1.92328967029
1.89212722757
1.8621931478
1.83329663178
1.8056240656
1.77887581514
1.75324948435
1.72859249927
1.70473568814
1.68189542155
1.65980905587
1.63856558477
1.61827963892
1.59867686851
1.57999641021
1.56198290821
1.54488006427
1.52842204088
1.51273408998
1.49794716086
1.48379742434
1.47041643871
1.45793546401
1.44610837469
1.43505822028
1.42478169632
1.41541751561
1.40670125434
1.39877607965
1.39162188412
1.38524616941
1.37963096887
1.37491563993
1.37081381624
1.36745600499
1.36482413416
1.36350556664
56.1971337945
56.1971337945
56.1971337945
56.1971337945
56.1971337945
56.1971337945
56.1971337945
56.1971337945
56.1971337945
56.1971337945
56.1971337945
56.1971337944
56.1971337869
56.1971333768
56.1971114519
56.1959696435
56.1555578899
27.0943841218
11.643550472
6.56168578887
3.87581249862
2.97824283208
2.59595396902
2.43282353912
2.35123456661
2.29656923565
2.24986998627
2.20629398428
2.16483188266
2.12522713058
2.08734541874
2.05108923896
2.01634227952
1.98303825662
1.95095470636
1.92027017381
1.89080763663
1.86238920192
1.83518686651
1.80890276897
1.78374423709
1.75955130735
1.73616796258
1.7138120225
1.69220763139
1.67158737921
1.65167638144
1.6325783387
1.61442564181
1.59693362105
1.58038875039
1.56450565404
1.54941956332
1.53524181769
1.52172195873
1.50899167349
1.49703831416
1.48602037427
1.47564783278
1.466065838
1.45726759471
1.44939412278
1.44216023165
1.4357090524
1.4300207764
1.42508720231
1.42090114621
1.41744487964
1.41485353387
1.41348875623
56.1971337946
56.1971337946
56.1971337946
56.1971337946
56.1971337946
56.1971337946
56.1971337946
56.1971337946
56.1971337946
56.1971337946
56.1971337945
56.1971337933
56.1971337259
56.1971300787
56.1969379475
56.1889989822
47.7032022402