/*--------------------------------*- C++ -*----------------------------------*\
| =========                 |                                                 |
| \\      /  F ield         | foam-extend: Open Source CFD                    |
|  \\    /   O peration     | Version:     4.1                                |
|   \\  /    A nd           | Web:         http://www.foam-extend.org         |
|    \\/     M anipulation  |                                                 |
\*---------------------------------------------------------------------------*/
FoamFile
{
    version     2.0;
    format      ascii;
    class       volScalarField;
    location    "0.0005";
    object      mu;
}
// * * * * * * * * * * * * * * * * * * * * * * * * * * * * * * * * * * * * * //

dimensions      [1 -1 -1 0 0 0 0];

internalField   nonuniform List<scalar> 
8400
(
1.6889996149e-05
1.6889996149e-05
1.6889996149e-05
1.6889996149e-05
1.6889996149e-05
1.6889996149e-05
1.6889996149e-05
1.6889996149e-05
1.6889996149e-05
1.6889996149e-05
1.6889996149e-05
1.6889996149e-05
1.6889996149e-05
1.6889996149e-05
1.6889996149e-05
1.6889996149e-05
1.6889996149e-05
1.6889996149e-05
1.6889996149e-05
1.6889996149e-05
1.68899961491e-05
1.68899961557e-05
1.68899965415e-05
1.68900189253e-05
1.68907721869e-05
1.95553512792e-05
8.73356055862e-05
0.000168548795834
0.000159348949907
8.91740409768e-05
6.56786939076e-05
5.79148660921e-05
5.54672430815e-05
5.46660741652e-05
5.43534514729e-05
5.41913687089e-05
5.406231253e-05
5.39437525245e-05
5.38293537877e-05
5.37164197193e-05
5.36159677009e-05
5.35017733547e-05
5.33851573792e-05
5.32657503686e-05
5.31420101459e-05
5.30131306181e-05
5.28786517004e-05
5.27374515172e-05
5.25893224642e-05
5.24338313537e-05
5.22718120008e-05
5.21146504193e-05
5.19386361305e-05
5.17568424239e-05
5.15707231479e-05
5.13809558915e-05
5.11889235458e-05
5.09962284925e-05
5.08056867563e-05
5.06193142706e-05
5.04384960444e-05
5.02788180018e-05
5.01178472713e-05
4.99710699243e-05
4.9841062057e-05
4.97291932431e-05
4.96378096984e-05
4.95677598581e-05
4.95201943578e-05
4.94771552858e-05
1.68899961489e-05
1.68899961489e-05
1.68899961489e-05
1.68899961489e-05
1.68899961489e-05
1.68899961489e-05
1.68899961489e-05
1.68899961489e-05
1.68899961489e-05
1.68899961489e-05
1.68899961489e-05
1.68899961489e-05
1.68899961489e-05
1.68899961489e-05
1.68899961489e-05
1.68899961489e-05
1.68899961489e-05
1.68899961489e-05
1.68899961489e-05
1.68899961489e-05
1.68899961496e-05
1.68899961885e-05
1.68899984077e-05
1.68901275684e-05
1.68923280164e-05
3.7431398152e-05
0.000134239583767
0.000218253998375
0.000119709138047
7.53039105961e-05
6.04200991852e-05
5.57745142497e-05
5.43510755179e-05
5.39073872796e-05
5.37585756808e-05
5.36513287445e-05
5.35647180778e-05
5.34763955164e-05
5.33841329772e-05
5.32878690228e-05
5.31868889215e-05
5.30805773104e-05
5.29684931782e-05
5.28501946061e-05
5.27260392114e-05
5.2595075933e-05
5.2457141688e-05
5.231176617e-05
5.2158755096e-05
5.19981252423e-05
5.18313359337e-05
5.16577542374e-05
5.14779980286e-05
5.12937969109e-05
5.11058933206e-05
5.09155404643e-05
5.07250032479e-05
5.05359042767e-05
5.03501263363e-05
5.01798156238e-05
5.00061013997e-05
4.9841711181e-05
4.96889778922e-05
4.95510422018e-05
4.9428931595e-05
4.93244187162e-05
4.92389054028e-05
4.91735772966e-05
4.91294091243e-05
4.90933471961e-05
1.68899961488e-05
1.68899961488e-05
1.68899961488e-05
1.68899961488e-05
1.68899961488e-05
1.68899961488e-05
1.68899961488e-05
1.68899961488e-05
1.68899961488e-05
1.68899961488e-05
1.68899961488e-05
1.68899961488e-05
1.68899961488e-05
1.68899961488e-05
1.68899961488e-05
1.68899961488e-05
1.68899961488e-05
1.68899961488e-05
1.68899961488e-05
1.68899961489e-05
1.68899961519e-05
1.68899963248e-05
1.68900059358e-05
1.68905404656e-05
1.69357839726e-05
7.78712905437e-05
0.000159172399845
0.000178180093405
9.45206434598e-05
6.66103925699e-05
5.74610987546e-05
5.4651583362e-05
5.38320313977e-05
5.35818003385e-05
5.34757734932e-05
5.34048396846e-05
5.33343443258e-05
5.32599127211e-05
5.31797691877e-05
5.30933668213e-05
5.30003205501e-05
5.29002281359e-05
5.27932291247e-05
5.26790093145e-05
5.25569608523e-05
5.24271906283e-05
5.22891963222e-05
5.21430280189e-05
5.19890564712e-05
5.18282163237e-05
5.16600484006e-05
5.14852195234e-05
5.13059138811e-05
5.11222365742e-05
5.09354901182e-05
5.0747917491e-05
5.0560736061e-05
5.03758560651e-05
5.01945779449e-05
5.00189080101e-05
4.9852070515e-05
4.96948362874e-05
4.95604930122e-05
4.94292581018e-05
4.93135995479e-05
4.92148080203e-05
4.91345071849e-05
4.90735944268e-05
4.90325178194e-05
4.90005683591e-05
1.68899961488e-05
1.68899961488e-05
1.68899961488e-05
1.68899961488e-05
1.68899961488e-05
1.68899961488e-05
1.68899961488e-05
1.68899961488e-05
1.68899961488e-05
1.68899961488e-05
1.68899961488e-05
1.68899961488e-05
1.68899961488e-05
1.68899961488e-05
1.68899961488e-05
1.68899961488e-05
1.68899961488e-05
1.68899961488e-05
1.68899961488e-05
1.68899961491e-05
1.68899961637e-05
1.68899970023e-05
1.68900458335e-05
1.68911631781e-05
2.45601242728e-05
9.90003076249e-05
0.000182854087083
0.000137547253514
8.09611842325e-05
6.21069884128e-05
5.61581386225e-05
5.43279533445e-05
5.37942753309e-05
5.36187026192e-05
5.35182433149e-05
5.34412109687e-05
5.33629917812e-05
5.32812790496e-05
5.31944885992e-05
5.31018321129e-05
5.30027854501e-05
5.28967889103e-05
5.27838608272e-05
5.26637604912e-05
5.25357817548e-05
5.24000387122e-05
5.22561103167e-05
5.21041205829e-05
5.19446391495e-05
5.1778465872e-05
5.16053504605e-05
5.14261061496e-05
5.1243278402e-05
5.10567567888e-05
5.08679056239e-05
5.06794583329e-05
5.0492101489e-05
5.03076315367e-05
5.01386351896e-05
4.9965488111e-05
4.98007340184e-05
4.96466031604e-05
4.95052613056e-05
4.93777529548e-05
4.92656180261e-05
4.91701204891e-05
4.90926859343e-05
4.90340527291e-05
4.89945353486e-05
4.89646607104e-05
1.68899961488e-05
1.68899961488e-05
1.68899961488e-05
1.68899961488e-05
1.68899961488e-05
1.68899961488e-05
1.68899961488e-05
1.68899961488e-05
1.68899961488e-05
1.68899961488e-05
1.68899961488e-05
1.68899961488e-05
1.68899961488e-05
1.68899961488e-05
1.68899961488e-05
1.68899961488e-05
1.68899961488e-05
1.68899961488e-05
1.68899961488e-05
1.68899961497e-05
1.68899962028e-05
1.68899992412e-05
1.68901769742e-05
1.68929534102e-05
4.48428758262e-05
0.000140923342575
0.000220216859349
0.000113704825115
7.33349709102e-05
5.98319314316e-05
5.56613725373e-05
5.43939728995e-05
5.40126646517e-05
5.3874222028e-05
5.37677787541e-05
5.36773968969e-05
5.3584301667e-05
5.34868880408e-05
5.3384456944e-05
5.32770815052e-05
5.31639360017e-05
5.30441923251e-05
5.29175388263e-05
5.27838123735e-05
5.26434023964e-05
5.24954687886e-05
5.23401946692e-05
5.21773105588e-05
5.20070557393e-05
5.18307710621e-05
5.16486362145e-05
5.14611949459e-05
5.12703013318e-05
5.10768623377e-05
5.08933675142e-05
5.06991223627e-05
5.05067661737e-05
5.03194624247e-05
5.01378039078e-05
4.99634799709e-05
4.97980151325e-05
4.96432903615e-05
4.95022223202e-05
4.93753742742e-05
4.92640657095e-05
4.91694660559e-05
4.9092557843e-05
4.90344179698e-05
4.89953240767e-05
4.89662512703e-05
1.68899961488e-05
1.68899961488e-05
1.68899961488e-05
1.68899961488e-05
1.68899961488e-05
1.68899961488e-05
1.68899961488e-05
1.68899961488e-05
1.68899961488e-05
1.68899961488e-05
1.68899961488e-05
1.68899961488e-05
1.68899961488e-05
1.68899961488e-05
1.68899961488e-05
1.68899961488e-05
1.68899961488e-05
1.68899961488e-05
1.68899961488e-05
1.68899961511e-05
1.68899962868e-05
1.689000391e-05
1.68904355913e-05
1.68958112256e-05
7.06707870794e-05
0.000154910715549
0.000190042948186
9.94537516493e-05
6.88717279592e-05
5.88190688972e-05
5.57007231714e-05
5.47550861931e-05
5.44432388574e-05
5.42992647545e-05
5.41741235594e-05
5.40634171982e-05
5.39501436973e-05
5.38331920156e-05
5.37120862693e-05
5.35856655341e-05
5.34534835936e-05
5.33152906562e-05
5.31714311629e-05
5.30207012951e-05
5.28628551218e-05
5.2698305681e-05
5.2527372304e-05
5.23498116503e-05
5.21657597606e-05
5.19754127108e-05
5.17911024084e-05
5.15920701893e-05
5.13904243373e-05
5.11866609821e-05
5.09823297363e-05
5.07802736008e-05
5.0581058201e-05
5.03866955426e-05
5.01997103097e-05
5.00210298657e-05
4.98519865539e-05
4.97053898727e-05
4.95614438924e-05
4.94328277185e-05
4.93201861886e-05
4.92245871469e-05
4.91469495704e-05
4.90880206024e-05
4.90482682712e-05
4.90192503559e-05
1.68899961488e-05
1.68899961488e-05
1.68899961488e-05
1.68899961488e-05
1.68899961488e-05
1.68899961488e-05
1.68899961488e-05
1.68899961488e-05
1.68899961488e-05
1.68899961488e-05
1.68899961488e-05
1.68899961488e-05
1.68899961488e-05
1.68899961488e-05
1.68899961488e-05
1.68899961488e-05
1.68899961488e-05
1.68899961488e-05
1.68899961489e-05
1.68899961545e-05
1.68899964902e-05
1.68900161523e-05
1.68907388081e-05
1.90609427026e-05
8.60585799916e-05
0.000167211826718
0.000161867690346
9.01143215709e-05
6.62426903282e-05
5.84825199219e-05
5.60801312571e-05
5.53027328342e-05
5.50246242737e-05
5.48648598278e-05
5.4726185343e-05
5.45779040822e-05
5.44402231755e-05
5.42996120963e-05
5.41549863968e-05
5.40056500953e-05
5.3851311786e-05
5.3692346595e-05
5.35272954692e-05
5.33558625709e-05
5.31785411085e-05
5.30059737679e-05
5.28164264487e-05
5.26206630545e-05
5.24188718457e-05
5.22130233913e-05
5.20025898132e-05
5.17886816196e-05
5.15735184402e-05
5.13577048942e-05
5.11422870906e-05
5.09285132496e-05
5.07196199315e-05
5.05280747337e-05
5.03321605135e-05
5.0146582866e-05
4.99715121129e-05
4.98087339666e-05
4.96607187389e-05
4.95284048472e-05
4.94129136535e-05
4.93151855203e-05
4.92358425022e-05
4.91755773458e-05
4.91348514356e-05
4.91054705023e-05
1.68899961488e-05
1.68899961488e-05
1.68899961488e-05
1.68899961488e-05
1.68899961488e-05
1.68899961488e-05
1.68899961488e-05
1.68899961488e-05
1.68899961488e-05
1.68899961488e-05
1.68899961488e-05
1.68899961488e-05
1.68899961488e-05
1.68899961488e-05
1.68899961488e-05
1.68899961488e-05
1.68899961488e-05
1.68899961488e-05
1.6889996149e-05
1.68899961634e-05
1.68899969885e-05
1.68900449773e-05
1.68911596222e-05
2.43435324085e-05
9.83121481477e-05
0.000181511570519
0.000140902583645
8.37369850108e-05
6.46720292279e-05
5.85852479424e-05
5.66508659127e-05
5.60137896325e-05
5.573965199e-05
5.5554453639e-05
5.53843924363e-05
5.52170896308e-05
5.50503123917e-05
5.48816116047e-05
5.47101096503e-05
5.45349039088e-05
5.4355446725e-05
5.41720082466e-05
5.39831647515e-05
5.37887150148e-05
5.35895663569e-05
5.33843390528e-05
5.31734330076e-05
5.29580926156e-05
5.27381301633e-05
5.25136805187e-05
5.22856257018e-05
5.20559335689e-05
5.18361156301e-05
5.16055566032e-05
5.13766026109e-05
5.11505001283e-05
5.09303316088e-05
5.07168575432e-05
5.05117112968e-05
5.03163783491e-05
5.01337285376e-05
4.99648810544e-05
4.98223234221e-05
4.9684366175e-05
4.95646671214e-05
4.94633994931e-05
4.93812236519e-05
4.93189719896e-05
4.92768053881e-05
4.92468635339e-05
1.68899961488e-05
1.68899961488e-05
1.68899961488e-05
1.68899961488e-05
1.68899961488e-05
1.68899961488e-05
1.68899961488e-05
1.68899961488e-05
1.68899961488e-05
1.68899961488e-05
1.68899961488e-05
1.68899961488e-05
1.68899961488e-05
1.68899961488e-05
1.68899961488e-05
1.68899961488e-05
1.68899961488e-05
1.68899961488e-05
1.68899961493e-05
1.68899961836e-05
1.68899981665e-05
1.68901145446e-05
1.68921718755e-05
3.55184274783e-05
0.000130875912595
0.000212188483624
0.000124844434342
7.91389323006e-05
6.38022841557e-05
5.89373098515e-05
5.73895343183e-05
5.6838595302e-05
5.65584700804e-05
5.63465885915e-05
5.6145865199e-05
5.59465902318e-05
5.574725868e-05
5.55474690436e-05
5.53453022225e-05
5.51409256303e-05
5.49340146651e-05
5.4723786768e-05
5.45088911986e-05
5.42892715608e-05
5.40656873038e-05
5.38368327371e-05
5.36035961244e-05
5.33660967893e-05
5.31362098291e-05
5.28920043559e-05
5.26449714535e-05
5.23967225489e-05
5.21487043882e-05
5.19013957427e-05
5.16580225165e-05
5.14191387795e-05
5.11855168935e-05
5.09710531048e-05
5.07550157108e-05
5.05499888237e-05
5.03579776998e-05
5.01809375373e-05
5.00202417144e-05
4.98768108933e-05
4.97517934829e-05
4.96460415879e-05
4.95602981784e-05
4.94955130051e-05
4.94516986212e-05
4.94209778924e-05
1.68899961488e-05
1.68899961488e-05
1.68899961488e-05
1.68899961488e-05
1.68899961488e-05
1.68899961488e-05
1.68899961488e-05
1.68899961488e-05
1.68899961488e-05
1.68899961488e-05
1.68899961488e-05
1.68899961488e-05
1.68899961488e-05
1.68899961488e-05
1.68899961488e-05
1.68899961488e-05
1.68899961488e-05
1.68899961488e-05
1.68899961501e-05
1.68899962269e-05
1.68900005763e-05
1.68902506673e-05
1.68938144238e-05
5.27164876467e-05
0.000145935644933
0.000215682870161
0.000112935778476
7.58904520843e-05
6.35234935661e-05
5.95337704142e-05
5.82532721738e-05
5.77502466738e-05
5.74696696516e-05
5.72288287289e-05
5.69965349546e-05
5.67646120746e-05
5.65328313117e-05
5.63006062841e-05
5.60671190124e-05
5.58312540394e-05
5.55935752274e-05
5.53529749026e-05
5.51087720655e-05
5.48618112873e-05
5.46230066221e-05
5.436895623e-05
5.41109503545e-05
5.38492801889e-05
5.35854949347e-05
5.33188426767e-05
5.30519870454e-05
5.27849552177e-05
5.2518150871e-05
5.22658030357e-05
5.20055696587e-05
5.17504359133e-05
5.15031814445e-05
5.12649311458e-05
5.10368098559e-05
5.08211847147e-05
5.06201261053e-05
5.04462900912e-05
5.02773530796e-05
5.01265265852e-05
4.99950029807e-05
4.98847176616e-05
4.97953857825e-05
4.97275463405e-05
4.96816123899e-05
4.9649944822e-05
1.68899961488e-05
1.68899961488e-05
1.68899961488e-05
1.68899961488e-05
1.68899961488e-05
1.68899961488e-05
1.68899961488e-05
1.68899961488e-05
1.68899961488e-05
1.68899961488e-05
1.68899961488e-05
1.68899961488e-05
1.68899961488e-05
1.68899961488e-05
1.68899961488e-05
1.68899961488e-05
1.68899961488e-05
1.68899961488e-05
1.68899961514e-05
1.68899963039e-05
1.68900047873e-05
1.68904783918e-05
1.68962995244e-05
7.33673666838e-05
0.000155537434273
0.000192311506136
0.000103571052309
7.36032846499e-05
6.36006412769e-05
6.03716847748e-05
5.92776838342e-05
5.87969217485e-05
5.84867750418e-05
5.82078983655e-05
5.79373091284e-05
5.76692295406e-05
5.7401470618e-05
5.71336704856e-05
5.68658961616e-05
5.65965252106e-05
5.63383512446e-05
5.6066175519e-05
5.57913302303e-05
5.55142671206e-05
5.52348480502e-05
5.49526414186e-05
5.46672653769e-05
5.43806906043e-05
5.40928336434e-05
5.38150733748e-05
5.35260663622e-05
5.32371821077e-05
5.29511496284e-05
5.26681315517e-05
5.23906988808e-05
5.21202910171e-05
5.18696914724e-05
5.16165169385e-05
5.13761586144e-05
5.1149637791e-05
5.0937864633e-05
5.0742307756e-05
5.05656721856e-05
5.04082259868e-05
5.02712828196e-05
5.01671320187e-05
5.0073482473e-05
5.00026475722e-05
4.99545072207e-05
4.99215644365e-05
1.68899961488e-05
1.68899961488e-05
1.68899961488e-05
1.68899961488e-05
1.68899961488e-05
1.68899961488e-05
1.68899961488e-05
1.68899961488e-05
1.68899961488e-05
1.68899961488e-05
1.68899961488e-05
1.68899961488e-05
1.68899961488e-05
1.68899961488e-05
1.68899961488e-05
1.68899961488e-05
1.68899961488e-05
1.68899961489e-05
1.68899961546e-05
1.68899964958e-05
1.68900163057e-05
1.6890756255e-05
1.89796287977e-05
8.55174145076e-05
0.000165876565544
0.000169192403863
9.65533597742e-05
7.2157999898e-05
6.40445703358e-05
6.14042059609e-05
6.0437467553e-05
5.99539258207e-05
5.96034233042e-05
5.92815727846e-05
5.89676323958e-05
5.86569580204e-05
5.83497437135e-05
5.8055963093e-05
5.77498224932e-05
5.74452813269e-05
5.71394550652e-05
5.68337932814e-05
5.65270426465e-05
5.62180740993e-05
5.59081266502e-05
5.56082651307e-05
5.52951957099e-05
5.49805151099e-05
5.46656695176e-05
5.43515296386e-05
5.40383628638e-05
5.37279832461e-05
5.34334047686e-05
5.31305244822e-05
5.28344571244e-05
5.25469375097e-05
5.2268698721e-05
5.20015132994e-05
5.17597882456e-05
5.15207615982e-05
5.12982968641e-05
5.10932909946e-05
5.09071235886e-05
5.0742207682e-05
5.05987862668e-05
5.04779896634e-05
5.03802084749e-05
5.03058869939e-05
5.02552545668e-05
5.022096884e-05
1.68899961488e-05
1.68899961488e-05
1.68899961488e-05
1.68899961488e-05
1.68899961488e-05
1.68899961488e-05
1.68899961488e-05
1.68899961488e-05
1.68899961488e-05
1.68899961488e-05
1.68899961488e-05
1.68899961488e-05
1.68899961488e-05
1.68899961488e-05
1.68899961488e-05
1.68899961488e-05
1.68899961488e-05
1.6889996149e-05
1.68899961635e-05
1.68899969911e-05
1.68900445071e-05
1.6891169418e-05
2.39058881494e-05
9.69662920631e-05
0.000178581020365
0.000149515374394
9.09136673903e-05
7.12535603653e-05
6.47710875127e-05
6.25923306482e-05
6.17139372e-05
6.12184140674e-05
6.08225204716e-05
6.04492475908e-05
6.00973498817e-05
5.97402454073e-05
5.93877889361e-05
5.90393958316e-05
5.86932358374e-05
5.8349551157e-05
5.80072310893e-05
5.76645415389e-05
5.73344581281e-05
5.69921570004e-05
5.66500457476e-05
5.63065224782e-05
5.59641055068e-05
5.56207725861e-05
5.52915238466e-05
5.4950858231e-05
5.46123729228e-05
5.42784330114e-05
5.39488658451e-05
5.362538205e-05
5.33224204537e-05
5.30166607566e-05
5.27216769358e-05
5.24391941551e-05
5.21719241168e-05
5.19204706517e-05
5.16985745631e-05
5.14835089511e-05
5.12887619181e-05
5.11153215646e-05
5.09647108246e-05
5.08382710879e-05
5.07358717907e-05
5.06580921323e-05
5.0605078446e-05
5.05696523533e-05
1.68899961488e-05
1.68899961488e-05
1.68899961488e-05
1.68899961488e-05
1.68899961488e-05
1.68899961488e-05
1.68899961488e-05
1.68899961488e-05
1.68899961488e-05
1.68899961488e-05
1.68899961488e-05
1.68899961488e-05
1.68899961488e-05
1.68899961488e-05
1.68899961488e-05
1.68899961488e-05
1.68899961488e-05
1.68899961494e-05
1.68899961849e-05
1.68899982206e-05
1.68901163006e-05
1.68922113949e-05
3.52167045755e-05
0.000129324879369
0.000204226749458
0.00013297776435
8.65398776223e-05
7.09000285888e-05
6.57280074454e-05
6.39072102822e-05
6.3103212536e-05
6.25798015343e-05
6.21448063793e-05
6.17166639134e-05
6.13010282951e-05
6.08928828639e-05
6.04924759936e-05
6.0096573621e-05
5.97062721873e-05
5.93315831968e-05
5.89474440372e-05
5.85668998121e-05
5.81873589135e-05
5.78094121057e-05
5.74449477115e-05
5.70692889459e-05
5.66951368009e-05
5.63220024181e-05
5.59518795706e-05
5.55839306155e-05
5.52324888746e-05
5.48738977243e-05
5.45205771926e-05
5.417617907e-05
5.38406011411e-05
5.35279024305e-05
5.32150502033e-05
5.29161443129e-05
5.26341156516e-05
5.23697647209e-05
5.21243378343e-05
5.18985101609e-05
5.17066639677e-05
5.15254492348e-05
5.13681532976e-05
5.12357977786e-05
5.11286164575e-05
5.10472025106e-05
5.09915700049e-05
5.09548482049e-05
1.68899961488e-05
1.68899961488e-05
1.68899961488e-05
1.68899961488e-05
1.68899961488e-05
1.68899961488e-05
1.68899961488e-05
1.68899961488e-05
1.68899961488e-05
1.68899961488e-05
1.68899961488e-05
1.68899961488e-05
1.68899961488e-05
1.68899961488e-05
1.68899961488e-05
1.68899961488e-05
1.68899961488e-05
1.68899961503e-05
1.68899962401e-05
1.68900012622e-05
1.68902849358e-05
1.6894233139e-05
5.49443305396e-05
0.000146561931154
0.000217989725353
0.000119800465809
8.3339812128e-05
7.10189546026e-05
6.68854314375e-05
6.53367918592e-05
6.45755245855e-05
6.40290122678e-05
6.35308149801e-05
6.30496071187e-05
6.25788456191e-05
6.21197207406e-05
6.16800810239e-05
6.12357293497e-05
6.07983567251e-05
6.03660719135e-05
5.99391989496e-05
5.95283589138e-05
5.91078247604e-05
5.86916818387e-05
5.82778932624e-05
5.78679167431e-05
5.74737294611e-05
5.70688742124e-05
5.66688156797e-05
5.6272288637e-05
5.58821401196e-05
5.55110375465e-05
5.5134862073e-05
5.47673101701e-05
5.44106679839e-05
5.40666012038e-05
5.37488426412e-05
5.34335325673e-05
5.31358493969e-05
5.28563203044e-05
5.25976333887e-05
5.23611169483e-05
5.2147671305e-05
5.19711927849e-05
5.18064052976e-05
5.16679383313e-05
5.15558310095e-05
5.14704061062e-05
5.14118689637e-05
5.13736379846e-05
1.68899961488e-05
1.68899961488e-05
1.68899961488e-05
1.68899961488e-05
1.68899961488e-05
1.68899961488e-05
1.68899961488e-05
1.68899961488e-05
1.68899961488e-05
1.68899961488e-05
1.68899961488e-05
1.68899961488e-05
1.68899961488e-05
1.68899961488e-05
1.68899961488e-05
1.68899961488e-05
1.68899961488e-05
1.68899961523e-05
1.68899963528e-05
1.68900072526e-05
1.68905938996e-05
1.70483587485e-05
7.77962550128e-05
0.000157731357164
0.000193157393419
0.00010972459966
8.13075258333e-05
7.15636048799e-05
6.82624580592e-05
6.69051890568e-05
6.61532519174e-05
6.55544357002e-05
6.49947748197e-05
6.44549504861e-05
6.39404156196e-05
6.34250963804e-05
6.29197698469e-05
6.2423703131e-05
6.19376042428e-05
6.14711521018e-05
6.09974097492e-05
6.05313984274e-05
6.00695365812e-05
5.96263962063e-05
5.91741527716e-05
5.87264923336e-05
5.8283943726e-05
5.78595953197e-05
5.74274295968e-05
5.70025504338e-05
5.65835677869e-05
5.61739269019e-05
5.57859476858e-05
5.539592861e-05
5.50182420789e-05
5.46535804028e-05
5.43050213336e-05
5.39867445989e-05
5.36731929221e-05
5.33796257718e-05
5.31085821596e-05
5.28606371867e-05
5.26368611043e-05
5.24514901934e-05
5.22791710698e-05
5.21339973842e-05
5.20165714118e-05
5.19270219964e-05
5.18654642146e-05
5.18258406014e-05
1.68899961488e-05
1.68899961488e-05
1.68899961488e-05
1.68899961488e-05
1.68899961488e-05
1.68899961488e-05
1.68899961488e-05
1.68899961488e-05
1.68899961488e-05
1.68899961488e-05
1.68899961488e-05
1.68899961488e-05
1.68899961488e-05
1.68899961488e-05
1.68899961488e-05
1.68899961488e-05
1.68899961489e-05
1.68899961598e-05
1.68899967767e-05
1.68900317641e-05
1.68910096919e-05
2.1426030069e-05
9.11766905031e-05
0.000170729424675
0.000167012319886
0.000102019651273
7.99760220445e-05
7.2531223659e-05
6.9837369887e-05
6.86219632446e-05
6.78368753358e-05
6.71714824501e-05
6.65433311748e-05
6.59494221365e-05
6.53581648837e-05
6.47817008147e-05
6.42326895439e-05
6.3682516165e-05
6.31443424497e-05
6.26151504554e-05
6.2108848251e-05
6.15960143783e-05
6.10916375982e-05
6.05930033503e-05
6.01154007942e-05
5.96292207522e-05
5.91509198635e-05
5.86784853742e-05
5.82278263495e-05
5.77706838336e-05
5.73233910384e-05
5.68857399328e-05
5.64735097989e-05
5.60599180201e-05
5.56602863793e-05
5.52755240786e-05
5.49084493901e-05
5.45732414099e-05
5.42442962712e-05
5.39373300416e-05
5.36529588933e-05
5.33931814866e-05
5.31592144391e-05
5.29664088473e-05
5.27864316228e-05
5.26349876377e-05
5.25121742243e-05
5.2418367343e-05
5.23537632695e-05
5.23121843737e-05
1.68899961488e-05
1.68899961488e-05
1.68899961488e-05
1.68899961488e-05
1.68899961488e-05
1.68899961488e-05
1.68899961488e-05
1.68899961488e-05
1.68899961488e-05
1.68899961488e-05
1.68899961488e-05
1.68899961488e-05
1.68899961488e-05
1.68899961488e-05
1.68899961488e-05
1.68899961488e-05
1.68899961493e-05
1.68899961807e-05
1.68899979357e-05
1.68900978272e-05
1.68919667183e-05
3.24827491916e-05
0.000120364285534
0.000190680716012
0.000145508472147
9.62937146304e-05
7.95129735515e-05
7.37722505221e-05
7.15622130962e-05
7.04343909568e-05
6.96050516319e-05
6.88801002516e-05
6.8178498041e-05
6.7499540121e-05
6.68557064515e-05
6.62155952733e-05
6.55923310337e-05
6.49849950472e-05
6.44039040321e-05
6.38211051505e-05
6.32511482253e-05
6.27051662338e-05
6.21552507768e-05
6.16140048188e-05
6.10823111e-05
6.05719253283e-05
6.0055623506e-05
5.95491010698e-05
5.90651589193e-05
5.85774383361e-05
5.81002516365e-05
5.76341036397e-05
5.71959645982e-05
5.67574315149e-05
5.63346489252e-05
5.59293343677e-05
5.55433368912e-05
5.51909742772e-05
5.48461183867e-05
5.45248467655e-05
5.42283457575e-05
5.39577230073e-05
5.37132027416e-05
5.35119302737e-05
5.33237816067e-05
5.31655474726e-05
5.30376100444e-05
5.29398363089e-05
5.2872377685e-05
5.28294437036e-05
1.68899961488e-05
1.68899961488e-05
1.68899961488e-05
1.68899961488e-05
1.68899961488e-05
1.68899961488e-05
1.68899961488e-05
1.68899961488e-05
1.68899961488e-05
1.68899961488e-05
1.68899961488e-05
1.68899961488e-05
1.68899961488e-05
1.68899961488e-05
1.68899961488e-05
1.68899961488e-05
1.68899961505e-05
1.68899962519e-05
1.68900018392e-05
1.68903112777e-05
1.68945616263e-05
5.60381550407e-05
0.00014649988394
0.000220859752402
0.000128663873486
9.22185985414e-05
7.96452890214e-05
7.52786678603e-05
7.34071527196e-05
7.23291214294e-05
7.14532809568e-05
7.06398745358e-05
6.98615816319e-05
6.91231632976e-05
6.83947339002e-05
6.76894857857e-05
6.70165269863e-05
6.63493419455e-05
6.5697527253e-05
6.50750063506e-05
6.44530534689e-05
6.38430034566e-05
6.32593489447e-05
6.26734058441e-05
6.20979787646e-05
6.15482125783e-05
6.0995089886e-05
6.04525108228e-05
5.99355873936e-05
5.94159169576e-05
5.89081437838e-05
5.8414956422e-05
5.79506414556e-05
5.74878597812e-05
5.70429491375e-05
5.66157379546e-05
5.62245838562e-05
5.58399193591e-05
5.54791965321e-05
5.51431995096e-05
5.48328356825e-05
5.45503505601e-05
5.43122064459e-05
5.40870839433e-05
5.38920390462e-05
5.37273273389e-05
5.35935847873e-05
5.34916154821e-05
5.34210078431e-05
5.33762142046e-05
1.68899961488e-05
1.68899961488e-05
1.68899961488e-05
1.68899961488e-05
1.68899961488e-05
1.68899961488e-05
1.68899961488e-05
1.68899961488e-05
1.68899961488e-05
1.68899961488e-05
1.68899961488e-05
1.68899961488e-05
1.68899961488e-05
1.68899961488e-05
1.68899961488e-05
1.68899961488e-05
1.68899961539e-05
1.68899964477e-05
1.68900130691e-05
1.68907410959e-05
1.81438424402e-05
8.20687593976e-05
0.000160570706679
0.000193598069669
0.000116507446602
8.96838668201e-05
8.04458500374e-05
7.70137040562e-05
7.53957872479e-05
7.4297860604e-05
7.33515623048e-05
7.24576731864e-05
7.16131066793e-05
7.07835855707e-05
6.99964031772e-05
6.92218873237e-05
6.84846840516e-05
6.77556714436e-05
6.70447082869e-05
6.63680944215e-05
6.56916687487e-05
6.50314011652e-05
6.44008355239e-05
6.37684432572e-05
6.31501761356e-05
6.25588850198e-05
6.19655292216e-05
6.13851919464e-05
6.08348346031e-05
6.02830645669e-05
5.9745550416e-05
5.92237297404e-05
5.873480027e-05
5.82465187789e-05
5.77787778605e-05
5.73318858209e-05
5.69218503806e-05
5.65198496703e-05
5.61431090217e-05
5.57923446511e-05
5.5468371794e-05
5.51898061236e-05
5.49247297891e-05
5.4690707869e-05
5.44879109316e-05
5.43172535268e-05
5.41786669729e-05
5.40725768348e-05
5.39986450243e-05
5.39519624177e-05
1.68899961488e-05
1.68899961488e-05
1.68899961488e-05
1.68899961488e-05
1.68899961488e-05
1.68899961488e-05
1.68899961488e-05
1.68899961488e-05
1.68899961488e-05
1.68899961488e-05
1.68899961488e-05
1.68899961488e-05
1.68899961488e-05
1.68899961488e-05
1.68899961488e-05
1.68899961491e-05
1.68899961705e-05
1.68899973495e-05
1.68900625156e-05
1.68914639062e-05
2.59145496964e-05
9.97346768434e-05
0.0001777206577
0.000164211848233
0.000107834032409
8.85284579782e-05
8.17555823834e-05
7.89935568418e-05
7.74807744783e-05
7.63416866169e-05
7.53226910433e-05
7.4340471962e-05
7.34123854624e-05
7.25054051584e-05
7.16298444561e-05
7.0797301531e-05
6.99781384214e-05
6.91981607218e-05
6.84259075624e-05
6.7692197811e-05
6.69619471422e-05
6.62506396709e-05
6.55714021691e-05
6.4892918564e-05
6.42299081017e-05
6.35985915189e-05
6.2965992318e-05
6.23490485667e-05
6.17631149626e-05
6.11777807123e-05
6.0609703546e-05
6.00757806372e-05
5.95431854782e-05
5.90321365278e-05
5.85420208404e-05
5.80898317316e-05
5.76452687203e-05
5.72261685905e-05
5.68336821668e-05
5.64855546763e-05
5.61493632297e-05
5.58431988228e-05
5.55683589904e-05
5.5325517928e-05
5.51148995382e-05
5.49367877579e-05
5.48095542305e-05
5.46985015137e-05
5.46209090092e-05
5.45720540257e-05
1.68899961488e-05
1.68899961488e-05
1.68899961488e-05
1.68899961488e-05
1.68899961488e-05
1.68899961488e-05
1.68899961488e-05
1.68899961488e-05
1.68899961488e-05
1.68899961488e-05
1.68899961488e-05
1.68899961488e-05
1.68899961488e-05
1.68899961488e-05
1.68899961488e-05
1.68899961503e-05
1.68899962338e-05
1.68900007886e-05
1.68902502972e-05
1.68939157738e-05
4.92418746817e-05
0.000142078907489
0.000218554886657
0.000141561473499
0.000102126317497
8.83885194372e-05
8.34080278176e-05
8.11145544536e-05
7.96433496992e-05
7.84485733184e-05
7.73231870669e-05
7.62645550963e-05
7.52358854974e-05
7.42609856856e-05
7.33091531967e-05
7.24049744642e-05
7.15168833818e-05
7.06726168116e-05
6.98392237964e-05
6.90455613635e-05
6.82592327722e-05
6.74931939164e-05
6.67657343443e-05
6.60400207853e-05
6.53341684006e-05
6.46610771959e-05
6.39901199735e-05
6.33523012344e-05
6.27163067684e-05
6.20989332682e-05
6.14991432972e-05
6.09362804851e-05
6.03779696426e-05
5.98414924578e-05
5.9345671708e-05
5.88568307723e-05
5.83937477312e-05
5.79571639089e-05
5.75668739696e-05
5.71878006576e-05
5.68393985218e-05
5.65224982222e-05
5.6236998287e-05
5.59852649886e-05
5.57845732995e-05
5.56004375173e-05
5.54507431659e-05
5.53355419818e-05
5.5254501657e-05
5.5203589659e-05
1.68899961488e-05
1.68899961488e-05
1.68899961488e-05
1.68899961488e-05
1.68899961488e-05
1.68899961488e-05
1.68899961488e-05
1.68899961488e-05
1.68899961488e-05
1.68899961488e-05
1.68899961488e-05
1.68899961488e-05
1.68899961488e-05
1.68899961488e-05
1.68899961489e-05
1.68899961543e-05
1.68899964652e-05
1.68900137935e-05
1.68907700389e-05
1.81002709839e-05
8.15524341372e-05
0.000159304383321
0.000202751143003
0.000126161793067
9.87718407294e-05
8.9103129936e-05
8.53254323172e-05
8.33173146882e-05
8.18692310837e-05
8.05744760186e-05
7.93662846513e-05
7.81995346482e-05
7.70988483323e-05
7.60417801095e-05
7.5011411599e-05
7.40349378762e-05
7.30777952632e-05
7.21677591565e-05
7.12724728532e-05
7.04207808394e-05
6.95779038627e-05
6.87608639203e-05
6.79824510641e-05
6.72081570998e-05
6.64723626827e-05
6.57413564094e-05
6.503168082e-05
6.43586299854e-05
6.36879772633e-05
6.30379600355e-05
6.24270670545e-05
6.18195627233e-05
6.12351196128e-05
6.06924479597e-05
6.01569776464e-05
5.96476359595e-05
5.91658037252e-05
5.87304561244e-05
5.83063417676e-05
5.79135165014e-05
5.75532307456e-05
5.72437286408e-05
5.69488205642e-05
5.66883427514e-05
5.64630935974e-05
5.62731720871e-05
5.61182554935e-05
5.59988195172e-05
5.59143656234e-05
5.58613100409e-05
1.68899961488e-05
1.68899961488e-05
1.68899961488e-05
1.68899961488e-05
1.68899961488e-05
1.68899961488e-05
1.68899961488e-05
1.68899961488e-05
1.68899961488e-05
1.68899961488e-05
1.68899961488e-05
1.68899961488e-05
1.68899961488e-05
1.68899961488e-05
1.68899961493e-05
1.68899961786e-05
1.68899977631e-05