/*--------------------------------*- C++ -*----------------------------------*\
| =========                 |                                                 |
| \\      /  F ield         | foam-extend: Open Source CFD                    |
|  \\    /   O peration     | Version:     4.1                                |
|   \\  /    A nd           | Web:         http://www.foam-extend.org         |
|    \\/     M anipulation  |                                                 |
\*---------------------------------------------------------------------------*/
FoamFile
{
    version     2.0;
    format      ascii;
    class       volScalarField;
    location    "0.0005";
    object      N;
}
// * * * * * * * * * * * * * * * * * * * * * * * * * * * * * * * * * * * * * //

dimensions      [0 0 0 0 0 0 0];

internalField   nonuniform List<scalar> 
8400
(
7.71492890862e-105
7.71492890866e-105
7.7149289087e-105
7.71492890875e-105
7.71492890879e-105
7.71492890883e-105
7.71492890887e-105
7.71492890891e-105
7.71492890895e-105
7.71492890899e-105
7.71492890903e-105
7.71492890907e-105
7.7149289091e-105
7.71492890914e-105
7.71492890917e-105
7.71492890921e-105
7.71492890924e-105
7.71492890928e-105
7.71492890931e-105
7.71492890952e-105
7.71492891993e-105
7.71492954511e-105
7.71496612245e-105
7.71708821158e-105
7.78850095626e-105
1.63633975167e-38
4.26401160018e-06
0.438551555936
0.610812308817
0.394473454401
0.281451210292
0.233266496339
0.214623471832
0.208048619232
0.205790851343
0.204861022607
0.204234229431
0.203687420489
0.203164873582
0.20264766602
0.202189476111
0.201660921674
0.201119449287
0.200561599246
0.199981100994
0.19937415964
0.198738150806
0.198068442397
0.197362088487
0.196618805436
0.195840618977
0.195087668917
0.194238307333
0.193359830199
0.192457504976
0.191534760286
0.190599108559
0.189657703117
0.188725325892
0.18781122242
0.186919741617
0.186133215624
0.185335234816
0.184607286366
0.18396120311
0.183404606422
0.182947686961
0.182595263588
0.182353031521
0.182020391404
7.71492889737e-105
7.71492889739e-105
7.7149288974e-105
7.71492889742e-105
7.71492889744e-105
7.71492889745e-105
7.71492889747e-105
7.71492889749e-105
7.7149288975e-105
7.71492889752e-105
7.71492889753e-105
7.71492889755e-105
7.71492889757e-105
7.71492889758e-105
7.7149288976e-105
7.71492889761e-105
7.71492889762e-105
7.71492889764e-105
7.71492889767e-105
7.71492889871e-105
7.71492896029e-105
7.71493264933e-105
7.71514304538e-105
7.7273880853e-105
7.93600092687e-105
3.18109300224e-23
0.0330684698752
0.750542674752
0.505791512971
0.332418695532
0.2516248655
0.219347224293
0.207475963927
0.203624405667
0.20244270581
0.201781895455
0.201295121175
0.200815539921
0.200321923005
0.199810864259
0.199278934657
0.198723314274
0.198140485293
0.197529860504
0.196892118518
0.19622334941
0.195521824488
0.194785582513
0.19401261511
0.193203761467
0.192364738941
0.191493981356
0.190593317408
0.189671142155
0.188730991779
0.18777766297
0.186823976641
0.185878240197
0.184946939597
0.184094299769
0.183222414455
0.182395297766
0.181626412691
0.180930958533
0.180315729436
0.179788000865
0.179355155825
0.179022909733
0.178795942304
0.178524482717
7.71492889257e-105
7.71492889258e-105
7.71492889259e-105
7.7149288926e-105
7.71492889261e-105
7.71492889262e-105
7.71492889263e-105
7.71492889264e-105
7.71492889265e-105
7.71492889266e-105
7.71492889267e-105
7.71492889268e-105
7.71492889269e-105
7.7149288927e-105
7.71492889271e-105
7.71492889272e-105
7.71492889272e-105
7.71492889273e-105
7.71492889282e-105
7.71492889764e-105
7.71492917882e-105
7.71494557719e-105
7.71585673911e-105
7.76653268805e-105
2.42663309265e-40
1.39060041549e-07
0.298635116001
0.651602313209
0.417009622314
0.288039578375
0.232569503558
0.211160704541
0.203912169407
0.20172017413
0.200934627128
0.200486055561
0.200075170461
0.199654256996
0.199210505802
0.198740012209
0.198239491144
0.197708154009
0.197145972576
0.196551393743
0.195921577859
0.195255879802
0.194552860662
0.193810996546
0.193033004242
0.192221896639
0.191376326584
0.19049936635
0.189600855375
0.188681609619
0.187746811688
0.186808078183
0.185871847408
0.184946273094
0.184038686263
0.183158782889
0.182320767634
0.1815299046
0.180855076309
0.180194407744
0.179611702004
0.179113272733
0.178706471873
0.178396548959
0.178186536833
0.177954310337
7.71492888993e-105
7.71492888993e-105
7.71492888994e-105
7.71492888995e-105
7.71492888996e-105
7.71492888996e-105
7.71492888997e-105
7.71492888998e-105
7.71492888999e-105
7.71492888999e-105
7.71492889e-105
7.71492889001e-105
7.71492889001e-105
7.71492889002e-105
7.71492889003e-105
7.71492889003e-105
7.71492889004e-105
7.71492889005e-105
7.71492889044e-105
7.71492891364e-105
7.71493029829e-105
7.71500980818e-105
7.71963922878e-105
7.82556876856e-105
4.60251210886e-38
7.39099127442e-05
0.621336242134
0.556817204126
0.359224060604
0.262256772466
0.222811944807
0.207989824831
0.203246728428
0.201802086435
0.201137940856
0.200680669009
0.200238281623
0.199785298136
0.199312148176
0.198814707562
0.198288610979
0.197732481169
0.197145719514
0.196526871394
0.195872636202
0.19518234228
0.194454793535
0.193689071635
0.192888517343
0.192055925723
0.191190076247
0.190295267689
0.189382993732
0.188453321537
0.187512114559
0.186572434136
0.185637736373
0.184715915473
0.183872778962
0.183007432419
0.182182422182
0.181409894095
0.180700596398
0.180060613339
0.179496979152
0.179016531466
0.178625679873
0.178328715334
0.178127896301
0.177915955363
7.71492888829e-105
7.7149288883e-105
7.7149288883e-105
7.71492888831e-105
7.71492888831e-105
7.71492888832e-105
7.71492888832e-105
7.71492888833e-105
7.71492888834e-105
7.71492888834e-105
7.71492888835e-105
7.71492888835e-105
7.71492888836e-105
7.71492888836e-105
7.71492888837e-105
7.71492888837e-105
7.71492888838e-105
7.71492888841e-105
7.71492888982e-105
7.71492897412e-105
7.71493401111e-105
7.71522206411e-105
7.73207199143e-105
7.99529120119e-105
3.74053874477e-17
0.0722852252424
0.737780991415
0.486419669069
0.322597724739
0.247661167451
0.218088190938
0.20742420427
0.204114467862
0.203057109002
0.202413142865
0.201905293371
0.201397719943
0.20087423545
0.200330893291
0.199766733678
0.199178158723
0.198560771363
0.19791224606
0.197232604114
0.196522615292
0.195778842743
0.195000771564
0.194187334112
0.193338667385
0.192460812214
0.191555367347
0.190623712323
0.189676127536
0.188715763712
0.187804510157
0.186838121665
0.185882016784
0.184950100449
0.184046732706
0.183178649076
0.182351861988
0.181577800895
0.180870914761
0.180235846176
0.17967780196
0.179202977808
0.178816487968
0.178523364187
0.178325391882
0.178122561691
7.7149288872e-105
7.7149288872e-105
7.71492888721e-105
7.71492888721e-105
7.71492888722e-105
7.71492888722e-105
7.71492888723e-105
7.71492888723e-105
7.71492888723e-105
7.71492888724e-105
7.71492888724e-105
7.71492888725e-105
7.71492888725e-105
7.71492888726e-105
7.71492888726e-105
7.71492888726e-105
7.71492888727e-105
7.71492888734e-105
7.71492889104e-105
7.71492910953e-105
7.71494197471e-105
7.71566468663e-105
7.75659010664e-105
8.26622557097e-105
5.55496640556e-09
0.235137962361
0.674606627999
0.435682701176
0.299200856807
0.239844466804
0.216712852256
0.208682949786
0.206150465521
0.205185416374
0.204482124272
0.203887183403
0.203289810513
0.202679571738
0.202052745697
0.201403949861
0.200729728269
0.200029810325
0.199304348026
0.19854839511
0.197759306359
0.19693985534
0.196090904727
0.195210586262
0.194299851715
0.193357223359
0.192446748973
0.191462995221
0.190466066673
0.189458696941
0.188447778725
0.187446828424
0.186459208487
0.185495553167
0.184567819966
0.183679717587
0.182837443147
0.182106533304
0.181387548895
0.180744829499
0.180182207694
0.179703986356
0.179314843137
0.179019209343
0.178819610674
0.178621761944
7.71492888643e-105
7.71492888643e-105
7.71492888643e-105
7.71492888644e-105
7.71492888644e-105
7.71492888645e-105
7.71492888645e-105
7.71492888645e-105
7.71492888646e-105
7.71492888646e-105
7.71492888647e-105
7.71492888647e-105
7.71492888647e-105
7.71492888648e-105
7.71492888648e-105
7.71492888648e-105
7.71492888649e-105
7.71492888663e-105
7.71492889541e-105
7.71492943034e-105
7.7149612568e-105
7.71682531474e-105
7.78533648506e-105
1.33488305869e-38
2.87195794927e-06
0.41863928869
0.616496948534
0.398199347956
0.284050583959
0.235892144222
0.217467087346
0.211058607369
0.208983219771
0.208019163655
0.207275433231
0.206509582162
0.205804882047
0.205088788126
0.204357443151
0.20360546064
0.202832781664
0.202039247179
0.201218850236
0.200369342436
0.19949223037
0.19864164885
0.197707385381
0.196744772622
0.19575325904
0.194741467616
0.193707182077
0.192655698126
0.191597202457
0.190534737219
0.189473220064
0.188417405726
0.187383823962
0.186439138156
0.185470086328
0.184550516232
0.183681516892
0.182872488491
0.18213604025
0.181477866637
0.180902883434
0.180415494044
0.180019331095
0.179718009099
0.179513842448
0.179316334798
7.71492888586e-105
7.71492888586e-105
7.71492888587e-105
7.71492888587e-105
7.71492888587e-105
7.71492888588e-105
7.71492888588e-105
7.71492888588e-105
7.71492888589e-105
7.71492888589e-105
7.71492888589e-105
7.7149288859e-105
7.7149288859e-105
7.7149288859e-105
7.7149288859e-105
7.71492888591e-105
7.71492888592e-105
7.7149288863e-105
7.71492890909e-105
7.71493026985e-105
7.715008497e-105
7.71955806323e-105
7.82523165405e-105
4.47357091479e-38
6.37586174505e-05
0.607036488212
0.5650382028
0.370146159186
0.273958061665
0.234497302847
0.219449380747
0.214344806588
0.212493938912
0.211464103018
0.210589449394
0.209746908902
0.208912338793
0.208071748195
0.207220769291
0.206353914612
0.205469308715
0.204567153422
0.203640502027
0.20268861858
0.201714655997
0.20071207205
0.199682644684
0.198631775858
0.19755812221
0.196462369808
0.195348297724
0.19422423533
0.193149102607
0.19201903476
0.190896564552
0.189786840288
0.188703728582
0.187652165263
0.186640293659
0.18567522618
0.184771421423
0.183934461051
0.183229724283
0.182546078135
0.181952444009
0.181449798856
0.181041572714
0.180731275651
0.180520599176
0.180321829643
7.71492888543e-105
7.71492888543e-105
7.71492888543e-105
7.71492888544e-105
7.71492888544e-105
7.71492888544e-105
7.71492888544e-105
7.71492888545e-105
7.71492888545e-105
7.71492888545e-105
7.71492888545e-105
7.71492888546e-105
7.71492888546e-105
7.71492888546e-105
7.71492888547e-105
7.71492888547e-105
7.71492888549e-105
7.71492888637e-105
7.71492894001e-105
7.71493218926e-105
7.71512017766e-105
7.72615337076e-105
7.92119803582e-105
2.15494761638e-23
0.0210502174413
0.749425623274
0.520524842895
0.348347952118
0.267332325257
0.234629443889
0.22244238968
0.21824600081
0.216519081402
0.215405648601
0.214404419501
0.213422706147
0.212445632934
0.211469280743
0.210482652029
0.209487406325
0.208481717331
0.207460873586
0.206419005528
0.205355467913
0.204273241314
0.203165295914
0.202036220856
0.200885596502
0.199772726711
0.198588453101
0.197389511486
0.196182864904
0.194975865772
0.193771115726
0.192583546352
0.191416166569
0.190271362703
0.189220804059
0.188158603811
0.187149549286
0.186204006328
0.185331308133
0.184537658331
0.183828971276
0.18321103951
0.18268819701
0.182264258993
0.181943293992
0.181726261217
0.181527258519
7.71492888509e-105
7.71492888509e-105
7.71492888509e-105
7.71492888509e-105
7.7149288851e-105
7.7149288851e-105
7.7149288851e-105
7.7149288851e-105
7.71492888511e-105
7.71492888511e-105
7.71492888511e-105
7.71492888511e-105
7.71492888512e-105
7.71492888512e-105
7.71492888512e-105
7.71492888512e-105
7.71492888516e-105
7.71492888722e-105
7.71492900995e-105
7.71493629195e-105
7.7153486365e-105
7.73905844549e-105
8.07691934943e-105
5.21030996851e-14
0.118270917847
0.723734513098
0.482363479475
0.331686996153
0.263651273669
0.23617309356
0.226166710764
0.222596719633
0.22098834535
0.219775687577
0.218645107275
0.217525091615
0.216409082553
0.215292750697
0.214171403125
0.2130386779
0.211898438492
0.21074474428
0.209573749489
0.208388950962
0.207244895439
0.206025884091
0.204787528712
0.203530515047
0.202262198413
0.20097852217
0.199691348781
0.198401484628
0.197109452326
0.195888493514
0.194625658944
0.19338572208
0.19218098581
0.1910168961
0.189900650252
0.188844799925
0.187858603245
0.187007127305
0.18617616892
0.185433059782
0.184785354693
0.184241758964
0.183802182561
0.183468943293
0.183243606543
0.183042889354
7.71492888481e-105
7.71492888481e-105
7.71492888482e-105
7.71492888482e-105
7.71492888482e-105
7.71492888482e-105
7.71492888483e-105
7.71492888483e-105
7.71492888483e-105
7.71492888483e-105
7.71492888483e-105
7.71492888484e-105
7.71492888484e-105
7.71492888484e-105
7.71492888484e-105
7.71492888485e-105
7.71492888492e-105
7.71492888916e-105
7.71492913704e-105
7.7149435895e-105
7.71574786057e-105
7.760647794e-105
8.31251859787e-105
1.13280209917e-08
0.243598114585
0.678265615592
0.448953746682
0.318991861245
0.261813335887
0.239050616986
0.230739594741
0.227599691843
0.225948497394
0.224592198813
0.223303752016
0.222032761471
0.220764755697
0.219497054146
0.218229419573
0.216953237802
0.215731649653
0.214441645603
0.213138707227
0.211824533941
0.210497919801
0.209156073301
0.207797546442
0.206431936583
0.205056979348
0.203730755393
0.202346562999
0.200960804995
0.199585349733
0.19822156859
0.196881937814
0.19557315628
0.194360789909
0.193130374798
0.191961263822
0.190857465319
0.189824446197
0.18886901383
0.188003707144
0.187232033532
0.186558878582
0.186049991357
0.185590418522
0.185244821977
0.185010931478
0.184807232843
7.71492888459e-105
7.71492888459e-105
7.71492888459e-105
7.71492888459e-105
7.7149288846e-105
7.7149288846e-105
7.7149288846e-105
7.7149288846e-105
7.7149288846e-105
7.71492888461e-105
7.71492888461e-105
7.71492888461e-105
7.71492888461e-105
7.71492888461e-105
7.71492888462e-105
7.71492888462e-105
7.71492888477e-105
7.7149288938e-105
7.71492944024e-105
7.71496178186e-105
7.71683985779e-105
7.78699053558e-105
1.28367356587e-38
2.45785956148e-06
0.397969574948
0.631677181049
0.42136674977
0.309831625087
0.261846370335
0.242992422621
0.236000188458
0.233112898013
0.231354439832
0.229833320789
0.228368062554
0.22692062497
0.225487882231
0.224119075208
0.222689152692
0.221266496083
0.219836374891
0.218405190953
0.21696710779
0.215516546952
0.214058833439
0.212647904733
0.211170561707
0.209682736206
0.208190609229
0.206699530547
0.205210259778
0.203730724911
0.20232565967
0.200874782896
0.199453599078
0.19807073075
0.196730061335
0.195439411578
0.194272053052
0.193112711315
0.192032350931
0.191035465201
0.190129106716
0.189324784129
0.188625665218
0.188036519365
0.187560410905
0.187199578956
0.186954578694
0.186747307524
7.7149288844e-105
7.7149288844e-105
7.7149288844e-105
7.7149288844e-105
7.71492888441e-105
7.71492888441e-105
7.71492888441e-105
7.71492888441e-105
7.71492888441e-105
7.71492888442e-105
7.71492888442e-105
7.71492888442e-105
7.71492888442e-105
7.71492888442e-105
7.71492888443e-105
7.71492888443e-105
7.71492888483e-105
7.71492890811e-105
7.71493028478e-105
7.7150087398e-105
7.71951347989e-105
7.82616034141e-105
4.21013881802e-38
4.7298896386e-05
0.572799215777
0.585496874446
0.397374391456
0.303022502049
0.263346742283
0.247778933687
0.241830404718
0.239106530323
0.237210061951
0.235486975234
0.233873544048
0.232235685124
0.230617485339
0.229016098419
0.227422725083
0.225837835454
0.224256962336
0.222670308545
0.221141938598
0.219551188992
0.217958953142
0.216356396892
0.214755679905
0.213144539352
0.211599520708
0.209993964707
0.208396156999
0.206815819742
0.205251812075
0.20371176105
0.202269017652
0.200806450371
0.199393167747
0.198037109343
0.19675173959
0.195540191492
0.194470714719
0.193429766233
0.19248648553
0.191644908363
0.190914764152
0.190302170162
0.189807276872
0.189432103499
0.189177438208
0.188968202396
7.71492888424e-105
7.71492888424e-105
7.71492888424e-105
7.71492888424e-105
7.71492888425e-105
7.71492888425e-105
7.71492888425e-105
7.71492888425e-105
7.71492888425e-105
7.71492888426e-105
7.71492888426e-105
7.71492888426e-105
7.71492888426e-105
7.71492888426e-105
7.71492888426e-105
7.71492888428e-105
7.71492888523e-105
7.71492894169e-105
7.71493231127e-105
7.71512530523e-105
7.72631984676e-105
7.92494465749e-105
1.98507966129e-23
0.0167235839797
0.738127607017
0.542050341497
0.377230844334
0.298681505457
0.266067839329
0.253248570068
0.248187150285
0.245515128372
0.243504109098
0.241569618973
0.239695402351
0.237852608094
0.236041715025
0.234246990618
0.232472502782
0.230767563007
0.229013604412
0.227273065239
0.225532928889
0.223794859634
0.22211688642
0.220381414148
0.21864797055
0.21691438509
0.215189584272
0.213469376291
0.211824643585
0.210139560872
0.208474693234
0.206847877313
0.205256408236
0.203772618098
0.202281727968
0.200855060202
0.199506628694
0.198240773137
0.19706260243
0.195975742867
0.195054586084
0.19418008691
0.193422017798
0.192784444467
0.192269916716
0.191880020615
0.191615242832
0.191403905409
7.7149288841e-105
7.7149288841e-105
7.7149288841e-105
7.71492888411e-105
7.71492888411e-105
7.71492888411e-105
7.71492888411e-105
7.71492888411e-105
7.71492888412e-105
7.71492888412e-105
7.71492888412e-105
7.71492888412e-105
7.71492888412e-105
7.71492888412e-105
7.71492888413e-105
7.71492888417e-105
7.71492888665e-105
7.71492903221e-105
7.71493754814e-105
7.7154136661e-105
7.74230725453e-105
8.11661553027e-105
4.06413535307e-13
0.124712683396
0.728551943265
0.502121224304
0.361070458117
0.296513065967
0.269861943038
0.259323025335
0.25491315439
0.252286415927
0.250049134611
0.247915340933
0.245827597221
0.243784939989
0.241826241833
0.239839284913
0.237878122955
0.235933997864
0.234008475426
0.232151799828
0.230243043256
0.228349322708
0.226461484588
0.224584584492
0.222776633688
0.220911776598
0.219063792521
0.217225938575
0.215410847511
0.213682699938
0.21192311515
0.210198958794
0.208520838636
0.206896267312
0.205394651933
0.203898391174
0.202482882064
0.201151291075
0.199916971091
0.198786948548
0.197765319203
0.196922128283
0.196131931051
0.195468483313
0.194933409102
0.194527720953
0.194251740269
0.194037498695
7.71492888398e-105
7.71492888398e-105
7.71492888399e-105
7.71492888399e-105
7.71492888399e-105
7.71492888399e-105
7.71492888399e-105
7.71492888399e-105
7.714928884e-105
7.714928884e-105
7.714928884e-105
7.714928884e-105
7.714928884e-105
7.714928884e-105
7.71492888401e-105
7.71492888411e-105
7.71492888993e-105
7.71492922354e-105
7.71494822485e-105
7.71598158041e-105
7.77159848114e-105
9.40242312025e-40
1.32922918843e-07
0.274627658003
0.67877398823
0.467420292916
0.349261099711
0.296337222754
0.274793230442
0.266070766675
0.262084205227
0.259348918033
0.256896310921
0.254543949804
0.252299296836
0.250043192936
0.247822108882
0.245635331503
0.243482916419
0.241413880182
0.239302270716
0.23721869867
0.235145576143
0.233152394879
0.231107977598
0.229078332182
0.227064388056
0.22512832996
0.223148558976
0.221196634354
0.219263703541
0.217367211332
0.215568327229
0.213751371111
0.211987308715
0.210278429062
0.208639586575
0.207141778793
0.205659896911
0.204270518767
0.202985223476
0.201807784992
0.200742108648
0.199862041423
0.199040545496
0.198350284697
0.197793304736
0.197370918103
0.197083482297
0.196866556386
7.71492888388e-105
7.71492888388e-105
7.71492888388e-105
7.71492888388e-105
7.71492888388e-105
7.71492888389e-105
7.71492888389e-105
7.71492888389e-105
7.71492888389e-105
7.71492888389e-105
7.71492888389e-105
7.7149288839e-105
7.7149288839e-105
7.7149288839e-105
7.7149288839e-105
7.7149288842e-105
7.71492890176e-105
7.71492993064e-105
7.71498841636e-105
7.71830538504e-105
7.81101755093e-105
2.74861178606e-38
1.19241960842e-05
0.467063707984
0.625260843753
0.437849143456
0.340304686472
0.298179365945
0.28074950548
0.273499220612
0.269678642477
0.266760083041
0.264066430081
0.261524303808
0.258983361652
0.256494457509
0.25411744297
0.251725001949
0.249374923447
0.247053886896
0.244827442059
0.242560729083
0.240323541258
0.23810075666
0.235967892044
0.233783464337
0.231628142904
0.229489090241
0.227444803086
0.225360906364
0.223314154065
0.221303637678
0.219406186142
0.217494308349
0.215640445801
0.213850431501
0.212136599032
0.21056984089
0.209025276305
0.207581665902
0.206242069244
0.205016541132
0.203910331714
0.203001057106
0.202149046944
0.201433738102
0.200855376333
0.200415669918
0.200116367185
0.19989528455
7.71492888379e-105
7.71492888379e-105
7.71492888379e-105
7.71492888379e-105
7.71492888379e-105
7.71492888379e-105
7.7149288838e-105
7.7149288838e-105
7.7149288838e-105
7.7149288838e-105
7.7149288838e-105
7.7149288838e-105
7.7149288838e-105
7.71492888381e-105
7.71492888382e-105
7.71492888471e-105
7.71492893606e-105
7.71493191194e-105
7.71509829757e-105
7.72456847535e-105
7.90174816476e-105
4.9239607377e-24
0.00428140492544
0.681484122721
0.573268137003
0.413488807284
0.33492130748
0.301422107106
0.287497251535
0.281343786924
0.277580199135
0.274503006301
0.271554959718
0.268695224463
0.265974432587
0.26325332261
0.260590765845
0.257983989743
0.255481430834
0.252957077111
0.250477159132
0.248095366399
0.245681914808
0.243297120997
0.240942150776
0.238676761781
0.236371114261
0.234099735242
0.231923678434
0.229719517673
0.22755454753
0.225429750317
0.22342819637
0.221415137908
0.21946819752
0.217595967511
0.215806484752
0.214171381623
0.212563816462
0.211062865796
0.209675793596
0.20840751393
0.207258506219
0.206316899847
0.205432829995
0.204690696134
0.204091881477
0.203637566256
0.203328106278
0.203105732101
7.7149288837e-105
7.71492888371e-105
7.71492888371e-105
7.71492888371e-105
7.71492888371e-105
7.71492888371e-105
7.71492888371e-105
7.71492888371e-105
7.71492888372e-105
7.71492888372e-105
7.71492888372e-105
7.71492888372e-105
7.71492888372e-105
7.71492888372e-105
7.71492888377e-105
7.71492888666e-105
7.71492905343e-105
7.71493866001e-105
7.71546836442e-105
7.7448045927e-105
8.14775766822e-105
5.74412785091e-13
0.123459088056
0.736416226754
0.526422777535
0.394173502139
0.332146248029
0.30605343124
0.29488505242
0.289529219866
0.285763846071
0.282398458288
0.279187498242
0.276130921418
0.273097038725
0.27014307187
0.267312601129
0.264488816532
0.26171510026
0.259055895994
0.256383229044
0.253747262914
0.25121691213
0.248661873069
0.246140188759
0.243723221499
0.241278348579
0.238867824736
0.236565090967
0.234236517026
0.231952462764
0.229722968429
0.227619045606
0.225511485101
0.22347824579
0.221517423823
0.219720246543
0.217944719249
0.216275243535
0.214716987967
0.213274411572
0.211959261243
0.210852436166
0.209802201435
0.208893882056
0.208126447556
0.207505887219
0.207035498345
0.206714174158
0.206488183721
7.71492888363e-105
7.71492888363e-105
7.71492888363e-105
7.71492888364e-105
7.71492888364e-105
7.71492888364e-105
7.71492888364e-105
7.71492888364e-105
7.71492888364e-105
7.71492888364e-105
7.71492888365e-105
7.71492888365e-105
7.71492888365e-105
7.71492888365e-105
7.7149288838e-105
7.71492889218e-105
7.71492937417e-105
7.71495722875e-105
7.71653301419e-105
7.78555338122e-105
7.69505032038e-39
7.35254897285e-07
0.315755206302
0.678393128289
0.486640437838
0.380140887737
0.332338154338
0.311901644305
0.302962288042
0.297981986626
0.294086514549
0.290470008166
0.287049542523
0.283666552415
0.280440505833
0.277244923744
0.274187857979
0.271145483186
0.268159779841
0.265306683073
0.26243469316
0.259615255069
0.256912776582
0.254184690397
0.251503557035
0.248929170856
0.246330456675
0.243776211797
0.24134638097
0.238896787456
0.236498763028
0.234160475081
0.231962976228
0.229757273364
0.227636322769
0.225601406092
0.223731541347
0.221889201744
0.220158107082
0.21854282427
0.217046277028
0.215761647835
0.21453444159
0.213450694055
0.212512482066
0.211724430688
0.211086731529
0.210601292218
0.210267896852
0.210038489719
7.71492888357e-105
7.71492888357e-105
7.71492888357e-105
7.71492888357e-105
7.71492888357e-105
7.71492888357e-105
7.71492888357e-105
7.71492888358e-105
7.71492888358e-105
7.71492888358e-105
7.71492888358e-105
7.71492888358e-105
7.71492888358e-105
7.71492888359e-105
7.71492888422e-105
7.71492891978e-105
7.71493094898e-105
7.71504272337e-105
7.72122077492e-105
7.85407920786e-105
5.33246551847e-38
8.58743123822e-05
0.558174448592
0.616941855312
0.454205256531
0.371312525089
0.334932060647
0.31901165297
0.3114777799
0.306681737073
0.302624859381
0.298733677076
0.295040359497
0.291404077527
0.287868065926
0.2844869046
0.281134349748
0.277924988044
0.27472370978
0.271668100498
0.268606704641
0.265605796064
0.262727562861
0.259833318207
0.256988434971
0.254268073251
0.25152441334
0.248834931035
0.246271239784
0.24369405811
0.241180459178
0.238811411464
0.236434820274
0.234145357571
0.231939578543
0.229900731863
0.227885042018
0.225980251415
0.224189506126
0.222601009617
0.221060163891
0.219655524381
0.218393078352
0.217276841315
0.216309605327
0.215492142222
0.214915917097
0.214411479701
0.21406513172
0.213831244562
7.71492888351e-105
7.71492888351e-105
7.71492888351e-105
7.71492888351e-105
7.71492888351e-105
7.71492888351e-105
7.71492888351e-105
7.71492888352e-105
7.71492888352e-105
7.71492888352e-105
7.71492888352e-105
7.71492888352e-105
7.71492888352e-105
7.71492888357e-105
7.71492888602e-105
7.71492902571e-105
7.7149369472e-105
7.71536876669e-105
7.73902335805e-105
8.08652781445e-105
1.43791569624e-16
0.0804276232823
0.750632734588
0.56042486598
0.429770327894
0.366723166372
0.339313750259
0.326920889407
0.320316900611
0.315561556245
0.311195929974
0.30708502788
0.30305872088
0.299216865067
0.295433550539
0.291816406581
0.288234928241
0.284808748474
0.281400971489
0.278136926084
0.274879254443
0.271683729563
0.26863628706
0.265574467489
0.262578472024
0.259708409001
0.256827336388
0.254077359707
0.251317602159
0.248624137257
0.245992562462
0.243516416608
0.24104480542
0.238659091831
0.236449084066
0.234258835841
0.232176245952
0.230204898022
0.228442609739
0.226722516476
0.225138681564
0.223695879013
0.222393180815
0.221243612974
0.220334099018
0.219496465209
0.218819079357
0.218301216569
0.217942830387
0.217705443689
7.71492888345e-105
7.71492888345e-105
7.71492888345e-105
7.71492888346e-105
7.71492888346e-105
7.71492888346e-105
7.71492888346e-105
7.71492888346e-105
7.71492888346e-105
7.71492888346e-105
7.71492888346e-105
7.71492888347e-105
7.71492888347e-105
7.71492888364e-105
7.71492889288e-105
7.714929413e-105
7.7149588867e-105
7.71660168601e-105
7.78829731643e-105
7.41340861023e-39
6.25096309797e-07
0.295384654829
0.694459324317
0.514255815063
0.412711925682
0.365797924523
0.345178428987
0.335327602119
0.329382646137
0.324433353901
0.319854572071
0.31540162276
0.311170066014
0.307071948942
0.303040358485
0.29919271666
0.295388685784
0.291746620738
0.288133905454
0.284676229505
0.281227372954
0.277860813166
0.274636589898
0.271403067148
0.268315746723
0.26522637522
0.26220919363
0.259336071321
0.256452970943
0.25364249215
0.250992005509
0.248337578033
0.24577195758
0.243383279704
0.241012169817
0.238748227344
0.236596720747
0.234650680727
0.232744521098
0.230975526871
0.229350170267
0.227956042261
0.226620120574
0.225440902279
0.224424013424
0.223567828395
0.222872886227
0.222340544171
0.221970513614
0.221729621879
7.7149288834e-105
7.7149288834e-105
7.71492888341e-105
7.71492888341e-105
7.71492888341e-105
7.71492888341e-105
7.71492888341e-105
7.71492888341e-105
7.71492888341e-105
7.71492888341e-105
7.71492888341e-105
7.71492888342e-105
7.71492888343e-105
7.71492888432e-105
7.71492893408e-105
7.71493171535e-105
7.71508192876e-105
7.72322530479e-105
7.88370818873e-105
6.7794170422e-38
0.000254068380006
0.574544393511
0.625889248784
0.477904633321
0.402152510493
0.368156250608
0.352500321146
0.344322047019
0.338517894607
0.333397185954
0.328539967781
0.323803854357
0.319291449733
0.314935535941
0.310652364367
0.306575059169
0.30254954529
0.298703611437
0.294887144559
0.291243581024
0.287614124801
0.284145701013
0.280685062751
0.277297921459
0.274068204584
0.270832997363
0.267751968765
0.264664565978
0.261660762427
0.25882588412
0.25599219449
0.253249214589
0.25068093567
0.248130546667
0.245685838826
0.243441720398
0.241226731735
0.239140075045
0.237185195015
0.235462442197
0.233790235264
0.232269760261
0.230904879473
0.229700037695
0.228657957865
0.22787128732
0.227152383785
0.226601467179
0.226219785046
0.225974626911
7.71492888336e-105
7.71492888336e-105
7.71492888336e-105
7.71492888336e-105
7.71492888336e-105
7.71492888336e-105
7.71492888336e-105
7.71492888337e-105
7.71492888337e-105
7.71492888337e-105
7.71492888337e-105
7.71492888337e-105
7.71492888345e-105
7.71492888796e-105
7.71492913867e-105
7.71494302218e-105
7.71568138182e-105
7.75461096612e-105
8.26088877205e-105
6.55207771688e-11
0.13788706624
0.743969899915
0.566156220497
0.451987727788
0.397333163162
0.372703262623
0.360676329962
0.353507037042
0.347664179217
0.34228875987
0.337151357056
0.332142554186
0.32737809571
0.322775902834
0.318254551237
0.313946940954
0.309693120025
0.305641152481
0.301637622798
0.297806686649
0.294006412212
0.290372245355
0.286754244895
0.283299059439
0.279843077692
0.276560441887
0.273275832825
0.270070444483
0.267038618741
0.264010844358
0.26107522327
0.258323169398
0.255586761905
0.252962806829
0.250538056498
0.248143158677
0.245876248351
0.243742244455
0.241835704887
0.239977841268
0.238272670285
0.236719761088
0.235423412627
0.234190268574
0.233123718132
0.232223734574
0.231492365871
0.230929854655
0.230534948965
0.230287017361
7.71492888332e-105
7.71492888332e-105
7.71492888332e-105
7.71492888332e-105
7.71492888332e-105
7.71492888332e-105
7.71492888332e-105
7.71492888332e-105
7.71492888333e-105
7.71492888333e-105
7.71492888333e-105
7.71492888334e-105
7.71492888381e-105
7.71492891035e-105
7.71493039608e-105
7.71501101408e-105
7.71934332171e-105
7.83174432094e-105
3.18665333441e-38
1.24022327672e-05
0.417186856278
0.673674445185
0.519264488794
0.435611855951
0.397111933534
0.379115319117
0.369439857367
0.362643761411
0.356676568421
0.35104606774
0.345580930403
0.340378256258
0.335366791769
0.330531505434
0.325787485282
0.321266764114
0.31688433143
0.312563046954
0.308433690041
0.304345292284
0.300452870685
0.296580315883
0.29289275539
0.289218492457
0.285719843035
0.282227399245