/*--------------------------------*- C++ -*----------------------------------*\
| =========                 |                                                 |
| \\      /  F ield         | foam-extend: Open Source CFD                    |
|  \\    /   O peration     | Version:     4.1                                |
|   \\  /    A nd           | Web:         http://www.foam-extend.org         |
|    \\/     M anipulation  |                                                 |
\*---------------------------------------------------------------------------*/
FoamFile
{
    version     2.0;
    format      ascii;
    class       volScalarField;
    location    "0.0005";
    object      N2;
}
// * * * * * * * * * * * * * * * * * * * * * * * * * * * * * * * * * * * * * //

dimensions      [0 0 0 0 0 0 0];

internalField   nonuniform List<scalar> 
8400
(
0.767082
0.767082
0.767082
0.767082
0.767082
0.767082
0.767082
0.767082
0.767082
0.767082
0.767082
0.767082
0.767082
0.767082
0.767082
0.767082
0.767082
0.767082
0.767082
0.767082
0.767082
0.767082
0.767082
0.767082
0.767082
0.767082
0.755657161261
0.327593017994
0.00010823361905
1.27100403438e-05
4.23889505403e-06
2.52152202476e-06
2.03940574304e-06
1.88607310453e-06
1.8317481541e-06
1.80712017727e-06
1.78910189582e-06
1.77311588181e-06
1.75783436307e-06
1.74275073162e-06
1.72952531906e-06
1.71446243331e-06
1.69907804324e-06
1.68349528278e-06
1.66736717657e-06
1.65062530396e-06
1.63331880749e-06
1.61514736341e-06
1.59633573344e-06
1.57659831374e-06
1.55629072739e-06
1.53666657889e-06
1.51497086428e-06
1.49267884271e-06
1.47008963597e-06
1.44728697995e-06
1.42437266438e-06
1.40169852053e-06
1.37947134498e-06
1.35789273815e-06
1.33722785558e-06
1.31909373318e-06
1.30099848293e-06
1.28459324553e-06
1.27020758903e-06
1.25783361439e-06
1.24784790784e-06
1.24017553259e-06
1.2349346282e-06
1.22888655747e-06
0.767082
0.767082
0.767082
0.767082
0.767082
0.767082
0.767082
0.767082
0.767082
0.767082
0.767082
0.767082
0.767082
0.767082
0.767082
0.767082
0.767082
0.767082
0.767082
0.767082
0.767082
0.767082
0.767082
0.767082
0.767082
0.767078430945
0.731664571439
0.00510496682423
3.56063913281e-05
7.01607906532e-06
3.05410979472e-06
2.1280662569e-06
1.85372875742e-06
1.76959227888e-06
1.74317144679e-06
1.72674192685e-06
1.71416722987e-06
1.70166203812e-06
1.68868285581e-06
1.67533758034e-06
1.66144977272e-06
1.64690405869e-06
1.63181934806e-06
1.61595028511e-06
1.59953222221e-06
1.58232092103e-06
1.56441715462e-06
1.54569356752e-06
1.52623176422e-06
1.50593276489e-06
1.48517729454e-06
1.46372675042e-06
1.44180242332e-06
1.41957967465e-06
1.39709113259e-06
1.37460664735e-06
1.35233325006e-06
1.33042250568e-06
1.30919226417e-06
1.28991983435e-06
1.27040432329e-06
1.25218790642e-06
1.23533037555e-06
1.22032643508e-06
1.20705964087e-06
1.19585318168e-06
1.18669193388e-06
1.17967821754e-06
1.17492602269e-06
1.17014188277e-06
0.767082
0.767082
0.767082
0.767082
0.767082
0.767082
0.767082
0.767082
0.767082
0.767082
0.767082
0.767082
0.767082
0.767082
0.767082
0.767082
0.767082
0.767082
0.767082
0.767082
0.767082
0.767082
0.767082
0.767082
0.767082
0.760423712792
0.467367925039
0.000186110623432
1.55527252004e-05
4.48616625651e-06
2.46276552994e-06
1.92543149779e-06
1.76781089446e-06
1.72096615074e-06
1.70316028075e-06
1.6922987084e-06
1.68197250266e-06
1.67137368218e-06
1.66006627595e-06
1.64799831604e-06
1.63525294133e-06
1.62162215151e-06
1.6072390869e-06
1.59206160266e-06
1.57596300202e-06
1.5591120216e-06
1.54128995569e-06
1.52270858192e-06
1.50325807457e-06
1.48320915367e-06
1.46244605948e-06
1.44106808704e-06
1.41944663608e-06
1.39746419376e-06
1.3753607026e-06
1.35343143339e-06
1.33173638559e-06
1.31058437659e-06
1.2900721485e-06
1.27033182273e-06
1.25185817448e-06
1.23453865597e-06
1.21992497259e-06
1.20569956e-06
1.19331222706e-06
1.18273072428e-06
1.17418955339e-06
1.16774700773e-06
1.1633923016e-06
1.15922478892e-06
0.767082
0.767082
0.767082
0.767082
0.767082
0.767082
0.767082
0.767082
0.767082
0.767082
0.767082
0.767082
0.767082
0.767082
0.767082
0.767082
0.767082
0.767082
0.767082
0.767082
0.767082
0.767082
0.767082
0.767082
0.767082
0.755036855537
0.144718501674
5.90808949693e-05
9.07119981741e-06
3.420355394e-06
2.20799381549e-06
1.85854768895e-06
1.75634249695e-06
1.72468113571e-06
1.7088135309e-06
1.69741150979e-06
1.68609824252e-06
1.67454849813e-06
1.6624065925e-06
1.64953000511e-06
1.63604992149e-06
1.62170905776e-06
1.60660713129e-06
1.59074215399e-06
1.57395804327e-06
1.55642464962e-06
1.53794759175e-06
1.51871812059e-06
1.49869510545e-06
1.47807442023e-06
1.45683214963e-06
1.43500388017e-06
1.41309127145e-06
1.39090776708e-06
1.36865199106e-06
1.34675965623e-06
1.32517016278e-06
1.30412359455e-06
1.28511610376e-06
1.26575164994e-06
1.2475805708e-06
1.23068706123e-06
1.21535476467e-06
1.20159905745e-06
1.18962838896e-06
1.17943609006e-06
1.17123096721e-06
1.16505727089e-06
1.16089014525e-06
1.15706443399e-06
0.767082
0.767082
0.767082
0.767082
0.767082
0.767082
0.767082
0.767082
0.767082
0.767082
0.767082
0.767082
0.767082
0.767082
0.767082
0.767082
0.767082
0.767082
0.767082
0.767082
0.767082
0.767082
0.767082
0.767082
0.767052670873
0.692986740825
0.00157067835576
2.96445761418e-05
6.37877162514e-06
2.92882363927e-06
2.10168253278e-06
1.85638776914e-06
1.78381499808e-06
1.75966915335e-06
1.74345760308e-06
1.73024868414e-06
1.71689050667e-06
1.70317068852e-06
1.68882421905e-06
1.6740168174e-06
1.65855470859e-06
1.64234476621e-06
1.62543329268e-06
1.60769299967e-06
1.58934391071e-06
1.57013505346e-06
1.5502603186e-06
1.52958138742e-06
1.50819912507e-06
1.48632284408e-06
1.46389373946e-06
1.44116233131e-06
1.41823483457e-06
1.39519365216e-06
1.37366360366e-06
1.35104151451e-06
1.32884601085e-06
1.307573808e-06
1.28711223344e-06
1.26766259578e-06
1.24941292723e-06
1.23241617996e-06
1.21715649272e-06
1.20346105714e-06
1.19158798299e-06
1.18152971104e-06
1.17335222857e-06
1.16721876651e-06
1.16311473605e-06
1.15944968859e-06
0.767082
0.767082
0.767082
0.767082
0.767082
0.767082
0.767082
0.767082
0.767082
0.767082
0.767082
0.767082
0.767082
0.767082
0.767082
0.767082
0.767082
0.767082
0.767082
0.767082
0.767082
0.767082
0.767082
0.767082
0.763759224522
0.530759511768
0.000270012420695
1.8558653522e-05
5.07164061664e-06
2.70775309085e-06
2.08745735845e-06
1.90158934864e-06
1.84344000513e-06
1.81955358391e-06
1.80072814309e-06
1.78461117225e-06
1.7683274711e-06
1.75169996894e-06
1.73469495562e-06
1.71706845911e-06
1.69892001069e-06
1.68004983256e-06
1.66071021024e-06
1.64056756594e-06
1.61977058949e-06
1.59827136571e-06
1.57618120922e-06
1.55351822804e-06
1.53020893655e-06
1.50643790604e-06
1.48366653971e-06
1.4592841751e-06
1.43497537183e-06
1.41065110014e-06
1.3864849e-06
1.36290255218e-06
1.33990870535e-06
1.31767602475e-06
1.29655333486e-06
1.27658550848e-06
1.25779417653e-06
1.24175767417e-06
1.22602133284e-06
1.21218818758e-06
1.20008727136e-06
1.18989916114e-06
1.18168143823e-06
1.17544444927e-06
1.17123683074e-06
1.16756813038e-06
0.767082
0.767082
0.767082
0.767082
0.767082
0.767082
0.767082
0.767082
0.767082
0.767082
0.767082
0.767082
0.767082
0.767082
0.767082
0.767082
0.767082
0.767082
0.767082
0.767082
0.767082
0.767082
0.767082
0.767082
0.756145045325
0.347491618674
0.000116178770436
1.31827434388e-05
4.37403268223e-06
2.61882828562e-06
2.1314939922e-06
1.97789139383e-06
1.92721095499e-06
1.90139800299e-06
1.8803949575e-06
1.85859966746e-06
1.8384905174e-06
1.81829386523e-06
1.79761407524e-06
1.77661177438e-06
1.75500838996e-06
1.7330936454e-06
1.71049861568e-06
1.68732183184e-06
1.66360943968e-06
1.6407287942e-06
1.61596970284e-06
1.59062941371e-06
1.56477414207e-06
1.53880158058e-06
1.51250767823e-06
1.48605331078e-06
1.45982724694e-06
1.43384390088e-06
1.40817610518e-06
1.38295371819e-06
1.35868679266e-06
1.33669207048e-06
1.31435681712e-06
1.29349477344e-06
1.27396497004e-06
1.25596500075e-06
1.23977970435e-06
1.22539665913e-06
1.21295138133e-06
1.20249753406e-06
1.19401098483e-06
1.18757963558e-06
1.18328573321e-06
1.17963488585e-06
0.767082
0.767082
0.767082
0.767082
0.767082
0.767082
0.767082
0.767082
0.767082
0.767082
0.767082
0.767082
0.767082
0.767082
0.767082
0.767082
0.767082
0.767082
0.767082
0.767082
0.767082
0.767082
0.767082
0.767082
0.754871063439
0.159050655947
6.48279890298e-05
1.02048000904e-05
3.97432929561e-06
2.61255241304e-06
2.21074441987e-06
2.08310526553e-06
2.03404947899e-06
2.00430109006e-06
1.97830456063e-06
1.95308806807e-06
1.92826445514e-06
1.90342692395e-06
1.87839868123e-06
1.85319470663e-06
1.82757145315e-06
1.80172751339e-06
1.77541712468e-06
1.74855866585e-06
1.7214461052e-06
1.69380751062e-06
1.665689502e-06
1.6373583252e-06
1.60880213843e-06
1.57997940039e-06
1.55102034033e-06
1.52225741712e-06
1.49511089856e-06
1.4669489221e-06
1.43932153855e-06
1.41238176118e-06
1.38652079993e-06
1.36171226146e-06
1.33810269977e-06
1.31592823176e-06
1.29538322715e-06
1.27650329527e-06
1.26082263741e-06
1.24566872191e-06
1.23269105721e-06
1.22175034344e-06
1.21287508103e-06
1.20622892151e-06
1.20173632629e-06
1.19799348129e-06
0.767082
0.767082
0.767082
0.767082
0.767082
0.767082
0.767082
0.767082
0.767082
0.767082
0.767082
0.767082
0.767082
0.767082
0.767082
0.767082
0.767082
0.767082
0.767082
0.767082
0.767082
0.767082
0.767082
0.767079597607
0.743302622608
0.0115794555711
4.14749505093e-05
8.35857724788e-06
3.74965055325e-06
2.65424950092e-06
2.32258618851e-06
2.21119126181e-06
2.16148510561e-06
2.1269650358e-06
2.09535610861e-06
2.06454389436e-06
2.034037695e-06
2.00379858853e-06
1.97363613877e-06
1.94341128312e-06
1.91309857494e-06
1.88277159373e-06
1.8520794179e-06
1.82104370176e-06
1.78987831119e-06
1.75838895185e-06
1.72666082844e-06
1.69472958315e-06
1.66423537491e-06
1.63229920785e-06
1.60040822156e-06
1.568758912e-06
1.53754101457e-06
1.50682225738e-06
1.47703684669e-06
1.44818810147e-06
1.42029994318e-06
1.39500997901e-06
1.36983131181e-06
1.34626146385e-06
1.32438695293e-06
1.30443658005e-06
1.28650954241e-06
1.27059989186e-06
1.25687658013e-06
1.24533082697e-06
1.2359769817e-06
1.22898609938e-06
1.22427998217e-06
1.2204558963e-06
0.767082
0.767082
0.767082
0.767082
0.767082
0.767082
0.767082
0.767082
0.767082
0.767082
0.767082
0.767082
0.767082
0.767082
0.767082
0.767082
0.767082
0.767082
0.767082
0.767082
0.767082
0.767082
0.767082
0.766913855317
0.647283083324
0.00087145537687
2.89847319287e-05
7.18788449696e-06
3.65934919275e-06
2.74409818621e-06
2.46175249887e-06
2.35973781104e-06
2.30947246928e-06
2.26921095604e-06
2.23140756831e-06
2.19429463155e-06
2.15764414078e-06
2.12133956653e-06
2.08525678917e-06
2.0493541845e-06
2.01359629563e-06
1.97782414717e-06
1.94194735421e-06
1.90613929458e-06
1.87199072957e-06
1.83608744575e-06
1.80010255348e-06
1.76408221792e-06
1.72825146673e-06
1.69256119521e-06
1.65737426726e-06
1.62263816468e-06
1.58839747578e-06
1.5564916972e-06
1.5240038925e-06
1.49258407321e-06
1.46253072712e-06
1.43399406909e-06
1.4069994096e-06
1.38176830777e-06
1.35850037011e-06
1.33868620322e-06
1.31949687188e-06
1.30260505155e-06
1.28790119751e-06
1.27575538889e-06
1.26593479657e-06
1.25848923465e-06
1.25348517324e-06
1.24955909041e-06
0.767082
0.767082
0.767082
0.767082
0.767082
0.767082
0.767082
0.767082
0.767082
0.767082
0.767082
0.767082
0.767082
0.767082
0.767082
0.767082
0.767082
0.767082
0.767082
0.767082
0.767082
0.767082
0.767082
0.762810480387
0.522312525102
0.000290980048378
2.14020046846e-05
6.42668439846e-06
3.64804016472e-06
2.88428695467e-06
2.63684621977e-06
2.5389095904e-06
2.48234405046e-06
2.43414117247e-06
2.38840790709e-06
2.34376590221e-06
2.29976776041e-06
2.25633846414e-06
2.21348322339e-06
2.1709302761e-06
2.13078606297e-06
2.08898796935e-06
2.04734522412e-06
2.00593947661e-06
1.96475757123e-06
1.92373942775e-06
1.88283767054e-06
1.84234368121e-06
1.80222130177e-06
1.76415043806e-06
1.72506762108e-06
1.68659187338e-06
1.64904651908e-06
1.61243779987e-06
1.57706983376e-06
1.54307610264e-06
1.51203917135e-06
1.48105910116e-06
1.45206294387e-06
1.42511345937e-06
1.40019092661e-06
1.37737636239e-06
1.35707407875e-06
1.33906475955e-06
1.32358187035e-06
1.31185935474e-06
1.30142615452e-06
1.29358803365e-06
1.2882756131e-06
1.28413798152e-06
0.767082
0.767082
0.767082
0.767082
0.767082
0.767082
0.767082
0.767082
0.767082
0.767082
0.767082
0.767082
0.767082
0.767082
0.767082
0.767082
0.767082
0.767082
0.767082
0.767082
0.767082
0.767082
0.767082
0.756379635865
0.368141530566
0.000142978294439
1.6769991801e-05
5.96006363803e-06
3.71841691714e-06
3.07043022849e-06
2.84675088827e-06
2.74732142504e-06
2.68165033172e-06
2.62367890848e-06
2.56824421638e-06
2.51423092388e-06
2.46157924866e-06
2.41197611189e-06
2.36103602502e-06
2.31110897964e-06
2.26170190822e-06
2.2130503284e-06
2.16493133297e-06
2.11718596163e-06
2.06998673015e-06
2.02505015428e-06
1.97881015586e-06
1.93304123457e-06
1.88795293647e-06
1.84366937458e-06
1.80019695704e-06
1.75775356634e-06
1.71813541652e-06
1.67797250306e-06
1.63931456837e-06
1.6023392479e-06
1.56708032473e-06
1.53369112687e-06
1.50390478187e-06
1.47483334019e-06
1.44814872576e-06
1.42379851365e-06
1.40189155365e-06
1.38274291781e-06
1.36615340622e-06
1.35237229093e-06
1.34126293704e-06
1.3328380647e-06
1.32715004363e-06
1.32287143723e-06
0.767082
0.767082
0.767082
0.767082
0.767082
0.767082
0.767082
0.767082
0.767082
0.767082
0.767082
0.767082
0.767082
0.767082
0.767082
0.767082
0.767082
0.767082
0.767082
0.767082
0.767082
0.767082
0.767082
0.754609026299
0.193335985062
8.22542715876e-05
1.35997815727e-05
5.66511076301e-06
3.85553550162e-06
3.29927006678e-06
3.09172283437e-06
2.98773766293e-06
2.91063915974e-06
2.84026344906e-06
2.77516201612e-06
2.71017351355e-06
2.64703427185e-06
2.58559480758e-06
2.52551061195e-06
2.46679016054e-06
2.4092260714e-06
2.3524991687e-06
2.29877649826e-06
2.24389197041e-06
2.18993366691e-06
2.13661683648e-06
2.08437113007e-06
2.03283485647e-06
1.9842466095e-06
1.93476630701e-06
1.88642164794e-06
1.83950922054e-06
1.79396380437e-06
1.74994919691e-06
1.70940419442e-06
1.66907184851e-06
1.63076366677e-06
1.59461997842e-06
1.56090491166e-06
1.52959324397e-06
1.5024207735e-06
1.47631789104e-06
1.45288558093e-06
1.43231852067e-06
1.41455743224e-06
1.39983614262e-06
1.3879407863e-06
1.37898475444e-06
1.37294076937e-06
1.36845670253e-06
0.767082
0.767082
0.767082
0.767082
0.767082
0.767082
0.767082
0.767082
0.767082
0.767082
0.767082
0.767082
0.767082
0.767082
0.767082
0.767082
0.767082
0.767082
0.767082
0.767082
0.767082
0.767082
0.767079782735
0.747418311416
0.0256654582477
5.24127830703e-05
1.14379521018e-05
5.53115138571e-06
4.05288844569e-06
3.56960876042e-06
3.37507827382e-06
3.26182405013e-06
3.17297417012e-06
3.08792036401e-06
3.00705666254e-06
2.92903798721e-06
2.85381169585e-06
2.78069266986e-06
2.7098911663e-06
2.64315103942e-06
2.57580229592e-06
2.51021208908e-06
2.44589413519e-06
2.38291318544e-06
2.32324190672e-06
2.26282949859e-06
2.20372107327e-06
2.14579140726e-06
2.08930200258e-06
2.03410090587e-06
1.98234230648e-06
1.93038171849e-06
1.8800810401e-06
1.83192131008e-06
1.78575632593e-06
1.74346685409e-06
1.70177978283e-06
1.66254801214e-06
1.62606392566e-06
1.59238832592e-06
1.5615466811e-06
1.53348610531e-06
1.50990158279e-06
1.4879068332e-06
1.4689310927e-06
1.45316022994e-06
1.44042530087e-06
1.43086916825e-06
1.42439504354e-06
1.41969936262e-06
0.767082
0.767082
0.767082
0.767082
0.767082
0.767082
0.767082
0.767082
0.767082
0.767082
0.767082
0.767082
0.767082
0.767082
0.767082
0.767082
0.767082
0.767082
0.767082
0.767082
0.767082
0.767082
0.766737970119
0.640865247339
0.00105292426329
3.58560701063e-05
9.99915626833e-06
5.53093087642e-06
4.30951913186e-06
3.88315060827e-06
3.69444904179e-06
3.57137267783e-06
3.46427209808e-06
3.36336543372e-06
3.26664715251e-06
3.17425847695e-06
3.08740133618e-06
3.00121037227e-06
2.91810695993e-06
2.83743396578e-06
2.75918249858e-06
2.68529965199e-06
2.61112215635e-06
2.53902021051e-06
2.46858042884e-06
2.40003523923e-06
2.33545930872e-06
2.27031236874e-06
2.20708893599e-06
2.14554171414e-06
2.08613566394e-06
2.03072562325e-06
1.97551040234e-06
1.92251928223e-06
1.87198539969e-06
1.82404102612e-06
1.78054326965e-06
1.73803718663e-06
1.69853794525e-06
1.66199364952e-06
1.62863536087e-06
1.59849789273e-06
1.57158628746e-06
1.54967240672e-06
1.52926054757e-06
1.51238705105e-06
1.49876761525e-06
1.48846455825e-06
1.48150679238e-06
1.47656720289e-06
0.767082
0.767082
0.767082
0.767082
0.767082
0.767082
0.767082
0.767082
0.767082
0.767082
0.767082
0.767082
0.767082
0.767082
0.767082
0.767082
0.767082
0.767082
0.767082
0.767082
0.767082
0.767082
0.76046543952
0.49132998539
0.000298550564373
2.62663001856e-05
9.13439765621e-06
5.65366497958e-06
4.63719653856e-06
4.25077658299e-06
4.05889917661e-06
3.91752041866e-06
3.79037336024e-06
3.67058896885e-06
3.55895219976e-06
3.44939611525e-06
3.34429456428e-06
3.24306924244e-06
3.14606892566e-06
3.05480111679e-06
2.96387253278e-06
2.87630944422e-06
2.79111944062e-06
2.71107918124e-06
2.63100274581e-06
2.55321823937e-06
2.47785073427e-06
2.40704001093e-06
2.33622859602e-06
2.26790674635e-06
2.2019581128e-06
2.13864806359e-06
2.07983483413e-06
2.02174215646e-06
1.96655824107e-06
1.91424304657e-06
1.8650842232e-06
1.82096100866e-06
1.77813359149e-06
1.73865034647e-06
1.70269782045e-06
1.67029274401e-06
1.64140110263e-06
1.61770805804e-06
1.59591395839e-06
1.57770020909e-06
1.56313592009e-06
1.55206963863e-06
1.54451021155e-06
1.5393370562e-06
0.767082
0.767082
0.767082
0.767082
0.767082
0.767082
0.767082
0.767082
0.767082
0.767082
0.767082
0.767082
0.767082
0.767082
0.767082
0.767082
0.767082
0.767082
0.767082
0.767082
0.767082
0.767082
0.754616071414
0.299084904351
0.000134303502545
2.03599300002e-05
8.58578924549e-06
5.90638365091e-06
5.03936441822e-06
4.68167008996e-06
4.47356601608e-06
4.30768182706e-06
4.15620768477e-06
4.01667608356e-06
3.88080872838e-06
3.75147290225e-06
3.63098973828e-06
3.51284418627e-06
3.39981120155e-06
3.29100113808e-06
3.18919287905e-06
3.08822344962e-06
2.99098498932e-06
2.89692044524e-06
2.80862366626e-06
2.72073736454e-06
2.6359641443e-06
2.55398501656e-06
2.47746052005e-06
2.40128488628e-06
2.32835729678e-06
2.25835162979e-06
2.19367382726e-06
2.13002902886e-06
2.06976123078e-06
2.01277646299e-06
1.9593495477e-06
1.9114400579e-06
1.86515338186e-06
1.82265317253e-06
1.78386163837e-06
1.74890335953e-06
1.71777230213e-06
1.69250379635e-06
1.6690925588e-06
1.64958450104e-06
1.63388718487e-06
1.62204409595e-06
1.61393736371e-06
1.60838075304e-06
0.767082
0.767082
0.767082
0.767082
0.767082
0.767082
0.767082
0.767082
0.767082
0.767082
0.767082
0.767082
0.767082
0.767082
0.767082
0.767082
0.767082
0.767082
0.767082
0.767082
0.767082
0.767081454575
0.75820806512
0.0842085329622
7.40253960364e-05
1.66349321595e-05
8.37354504392e-06
6.25617091534e-06
5.51263666474e-06
5.16929338126e-06
4.93869918488e-06
4.7469196894e-06
4.56703998328e-06
4.3975113492e-06
4.24077075233e-06
4.0886394223e-06
3.94418750626e-06
3.80676153461e-06
3.67827694263e-06
3.55248830462e-06
3.43215913393e-06
3.3195005076e-06
3.20857483809e-06
3.10173268471e-06
2.99923054244e-06
2.9029340496e-06
2.80771072007e-06
2.71620373633e-06
2.6307742725e-06
2.54645277782e-06
2.46569149772e-06
2.38847748148e-06
2.31734037802e-06
2.24758621505e-06
2.18168548429e-06
2.11964421113e-06
2.06160222183e-06
2.00962327299e-06
1.95956813667e-06
1.91369698324e-06
1.87204069424e-06
1.83456349455e-06
1.80111033373e-06
1.77390705019e-06
1.74875243868e-06
1.72777557228e-06
1.71099475762e-06
1.69822681837e-06
1.68953391197e-06
1.6837424413e-06
0.767082
0.767082
0.767082
0.767082
0.767082
0.767082
0.767082
0.767082
0.767082
0.767082
0.767082
0.767082
0.767082
0.767082
0.767082
0.767082
0.767082
0.767082
0.767082
0.767082
0.767082
0.766651847558
0.642107680611
0.00151244334657
4.66106376362e-05
1.42782512219e-05
8.38332446775e-06
6.7129512213e-06
6.05683580328e-06
5.71558980752e-06
5.45869508906e-06
5.2297280637e-06
5.01720949959e-06
4.82120383551e-06
4.63301251985e-06
4.45556275543e-06
4.29063573043e-06
4.13115855943e-06
3.97940156667e-06
3.8380581835e-06
3.70010501614e-06
3.56808959122e-06
3.44492125256e-06
3.32397881174e-06
3.20804964666e-06
3.09984413179e-06
2.99339915297e-06
2.891457033e-06
2.79641058799e-06
2.70312429648e-06
2.61384677549e-06
2.52912908718e-06
2.45103357209e-06
2.37475218234e-06
2.30301454463e-06
2.23540313638e-06
2.17468378579e-06
2.11606011355e-06
2.06206713603e-06
2.01258233938e-06
1.96755871054e-06
1.92712618131e-06
1.89363586247e-06
1.86226903499e-06
1.83532495052e-06
1.81291627064e-06
1.79478040557e-06
1.78114846457e-06
1.77180055587e-06
1.76560640793e-06
0.767082
0.767082
0.767082
0.767082
0.767082
0.767082
0.767082
0.767082
0.767082
0.767082
0.767082
0.767082
0.767082
0.767082
0.767082
0.767082
0.767082
0.767082
0.767082
0.767082
0.767082
0.758069384613
0.450256215444
0.000302027784417
3.25815650565e-05
1.2910250719e-05
8.64913806546e-06
7.27836368397e-06
6.68772064548e-06
6.32435342966e-06
6.02928964244e-06
5.76115219896e-06
5.51570729491e-06
5.28157459357e-06
5.06584745049e-06
4.85938554532e-06
4.66824831382e-06
4.48431503476e-06
4.30965409291e-06
4.14779468455e-06
3.99010266152e-06
3.84019799211e-06
3.70066542832e-06
3.56406296713e-06
3.43380223515e-06
3.31241263903e-06
3.19339816915e-06
3.07971993635e-06
2.97455036904e-06
2.87138238222e-06
2.77335925429e-06
2.6801851516e-06
2.59497925542e-06
2.51152777564e-06
2.43341661861e-06
2.36023078575e-06
2.29440252684e-06
2.23105327689e-06
2.17279337471e-06
2.11945487999e-06
2.07094214408e-06
2.0298769825e-06
1.99131705821e-06
1.95773940316e-06
1.92890560052e-06
1.90491618587e-06
1.88557820918e-06
1.87096385878e-06
1.86085012732e-06
1.85423604538e-06
0.767082
0.767082
0.767082
0.767082
0.767082
0.767082
0.767082
0.767082
0.767082
0.767082
0.767082
0.767082
0.767082
0.767082
0.767082
0.767082
0.767082
0.767082
0.767082
0.767082
0.767082
0.755168480188
0.207960101505
0.000124087933146
2.47889965438e-05
1.2286575165e-05
9.12909775801e-06
7.97380734762e-06
7.39941911158e-06
7.00152881105e-06
6.66305820611e-06
6.34843350787e-06
6.06076777464e-06
5.78859390155e-06
5.53375312872e-06
5.29870574676e-06
5.07407245227e-06
4.8663686499e-06
4.66640836888e-06
4.48165048648e-06
4.30274420578e-06
4.1331313518e-06
3.97548557327e-06
3.82204337722e-06
3.67591956055e-06
3.54053634825e-06
3.40818315247e-06
3.28225397227e-06
3.16565023852e-06
3.05200022261e-06
2.94420277599e-06
2.84534032306e-06
2.74884854224e-06
2.65838399562e-06
2.57342227222e-06
2.49681073376e-06
2.42288473701e-06
2.35450266142e-06
2.29172027294e-06
2.23699331129e-06
2.18497825828e-06
2.13830806259e-06
2.09700306281e-06
2.06102319832e-06
2.03012808201e-06
2.00426337648e-06
1.9860234742e-06
1.97023736745e-06
1.95929614086e-06
1.95221426107e-06
0.767082
0.767082
0.767082
0.767082
0.767082
0.767082
0.767082
0.767082
0.767082
0.767082
0.767082
0.767082
0.767082
0.767082
0.767082
0.767082
0.767082
0.767082
0.767082
0.767082
0.766986598912
0.68489068075
0.00589191921398
6.6975811415e-05
2.04668979528e-05
1.21780896912e-05
9.78027301845e-06
8.77727062407e-06
8.19288867839e-06
7.74972730322e-06
7.35065586831e-06
6.98875376271e-06
6.64910948295e-06
6.33785749834e-06
6.04386254749e-06
5.77331200596e-06
5.51563129321e-06
5.27820159518e-06
5.05078017703e-06
4.84044635134e-06
4.637992149e-06
4.44629546374e-06
4.26929319065e-06
4.09745359478e-06
3.93480115781e-06
3.78393639459e-06
3.63745188342e-06
3.50179090178e-06
3.36987658028e-06
3.24500343073e-06
3.1267905417e-06
3.01852528402e-06
2.91358995721e-06
2.81509307634e-06
2.72608073081e-06
2.64011990772e-06
2.56042180928e-06
2.48667254875e-06
2.42203805792e-06
2.36032668439e-06
2.30458875011e-06
2.25464224342e-06
2.21032752849e-06
2.17175170209e-06
2.14137795257e-06
2.1137983098e-06
2.09155598896e-06
2.07466398991e-06
2.06286814843e-06
2.05531051393e-06
0.767082
0.767082
0.767082
0.767082
0.767082
0.767082
0.767082
0.767082
0.767082
0.767082
0.767082
0.767082
0.767082
0.767082
0.767082
0.767082
0.767082
0.767082
0.767082
0.767082
0.758353369754
0.470593445944
0.000420550658785
4.35347326504e-05
1.81667522187e-05
1.24881612528e-05
1.05924704041e-05
9.67605936247e-06
9.07003024693e-06
8.55837765762e-06
8.10066016117e-06
7.67537072175e-06
7.28854944753e-06
6.92974648583e-06
6.59212261667e-06
6.2826604426e-06
5.98909126877e-06
5.71899094973e-06
5.46139697057e-06
5.22376465784e-06
4.99563525622e-06
4.78103928294e-06
4.58259670265e-06
4.39074869913e-06
4.21356029259e-06
4.04235242711e-06
3.88064556277e-06
3.73147211903e-06
3.58662653488e-06
3.44982303384e-06
3.32451738566e-06
3.2030838469e-06
3.08899809146e-06
2.98556589893e-06
2.88585829648e-06
2.79303703506e-06
2.70708060923e-06
2.63108593217e-06
2.55833945329e-06
2.49216252499e-06
2.43248918254e-06
2.3820968762e-06
2.33470345508e-06
2.29338566304e-06
2.25803341188e-06
2.22869547633e-06
2.20485268398e-06
2.18677449665e-06
2.17408781629e-06
2.16602041816e-06
0.767082
0.767082
0.767082
0.767082
0.767082
0.767082
0.767082
0.767082
0.767082
0.767082
0.767082
0.767082
0.767082
0.767082
0.767082
0.767082
0.767082
0.767082
0.767082
0.767082
0.756875920346
0.191566922431
0.000142136571292
3.20303615749e-05
1.71538020098e-05
1.31803541361e-05
1.15911279596e-05
1.06987529579e-05
1.00253478635e-05
9.4418659037e-06
8.91261247693e-06
8.42144012123e-06
7.97496420423e-06
7.56401910104e-06
7.17779941859e-06
6.82552347802e-06
6.49269631287e-06
6.18751581372e-06
5.89686176538e-06
5.63030489072e-06
5.37512965627e-06
5.14011763435e-06
4.91445287156e-06
4.70163774164e-06
4.50578856854e-06
4.31668171663e-06
4.14256910431e-06
3.97408937961e-06
3.81558494877e-06
3.67053115929e-06
3.53014208424e-06
3.39835186744e-06
3.27862034345e-06
3.16317742402e-06
3.05552883183e-06
2.95927735605e-06
2.86675556385e-06
2.78158257747e-06
2.70377035908e-06
2.63642795381e-06
2.57243461835e-06
2.51524399505e-06
2.46469065865e-06
2.42060371648e-06
2.3830084465e-06
2.35466988246e-06
2.32911525467e-06
2.30946160347e-06
2.29584536649e-06
2.28721603704e-06
0.767082
0.767082
0.767082
0.767082
0.767082
0.767082
0.767082
0.767082
0.767082
0.767082
0.767082
0.767082
0.767082
0.767082
0.767082
0.767082
0.767082
0.767082
0.767082
0.766015879819
0.627725602241
0.0024774534236
7.35257515607e-05
2.62922670667e-05
1.70704274477e-05
1.41337970622e-05
1.2732346656e-05
1.18177453879e-05
1.10593348731e-05
1.03885112297e-05
9.77953335967e-06
9.21649926929e-06
8.70729567418e-06
8.23890936286e-06
7.80050500322e-06
7.40153155894e-06
7.02542181352e-06
6.68189039665e-06
6.35707082923e-06
6.05857384681e-06
5.77455141313e-06
5.51351377408e-06
5.26373548906e-06
5.03388712655e-06
4.81271526244e-06
4.60996436943e-06
4.4144758752e-06
4.23036571866e-06
4.06198235766e-06
3.89953842891e-06
3.74716323917e-06
3.60857258415e-06
3.47495054213e-06
3.35067613888e-06
3.23884311988e-06
3.13149661567e-06
3.03246916575e-06
2.94162128146e-06
2.86206458941e-06
2.78627930239e-06
2.71810937581e-06
2.65715750849e-06
2.60694987313e-06
2.5599881484e-06
2.51975951067e-06
2.48606576848e-06
2.45892896501e-06
2.43801272774e-06
2.42315384639e-06
2.41391383637e-06
0.767082
0.767082
0.767082
0.767082
0.767082
0.767082
0.767082
0.767082
0.767082
0.767082
0.767082
0.767082
0.767082
0.767082
0.767082
0.767082
0.767082
0.767082
0.767082
0.754551592407
0.348914983713
0.00028978166669
4.7781484635e-05
2.36858792274e-05
1.76723268907e-05
1.53417565571e-05
1.40090824815e-05
1.30136145702e-05
1.21590717373e-05
1.13927840404e-05
1.06905892815e-05
1.00578822837e-05
9.48005522008e-06
8.95041559854e-06
8.45647227461e-06
8.00778738766e-06
7.59305741222e-06
7.20255895346e-06
6.84553847492e-06
6.50747738113e-06
6.19858098221e-06
5.90376551312e-06
5.63420514483e-06
5.37619467569e-06
5.13955702265e-06
4.91231780039e-06
4.69924070967e-06
4.50401002178e-06
4.31620434806e-06
4.14512660674e-06
3.98026432594e-06
3.82621455579e-06
3.68703810211e-06
3.55293971464e-06
3.42872965043e-06
3.31362992003e-06
3.21194653705e-06
3.11447709393e-06
3.02582242212e-06
2.94528354604e-06
2.87660838355e-06
2.8116881479e-06
2.7544966194e-06
2.70468603661e-06
2.66189008633e-06
2.62612295056e-06
2.60081831443e-06
2.57836132114e-06
2.56245641528e-06
2.55245449638e-06
0.767082
0.767082
0.767082
0.767082
0.767082
0.767082
0.767082
0.767082
0.767082
0.767082
0.767082
0.767082
0.767082
0.767082
0.767082
0.767082
0.767082
0.767082
0.767002841762
0.702388855822
0.033911657212
0.000112844822867
3.65747898301e-05
2.30158922174e-05
1.87806847843e-05
1.67521953465e-05
1.53980232683e-05
1.42968278845e-05
1.3324685084e-05
1.24513767528e-05
1.16622697931e-05
1.09388411551e-05
1.02883482462e-05
9.6936122132e-06
9.14878578923e-06
8.64004371917e-06
8.17863695346e-06
7.74492680121e-06
7.34958704909e-06
6.98305955864e-06
6.63551868755e-06
6.31770671747e-06
6.0149241445e-06
5.73846881002e-06
5.47447538961e-06
5.22730761895e-06
5.001385782e-06
4.78458264976e-06
4.58683411096e-06
4.39687552856e-06
4.21941505095e-06
4.05892500983e-06
3.90495780639e-06
3.76157351975e-06
3.63334344458e-06
3.51051345427e-06
3.39727454978e-06
3.2983974986e-06
3.20366365718e-06
3.11776576488e-06
3.04049123783e-06
2.97171916111e-06
2.91510226199e-06
2.86203970227e-06
2.8165612216e-06
2.77842613273e-06
2.74762412651e-06
2.72371710103e-06
2.7064537889e-06
2.69564435226e-06
0.767082
0.767082
0.767082
0.767082
0.767082
0.767082
0.767082
0.767082
0.767082
0.767082
0.767082
0.767082
0.767082
0.767082
0.767082
0.767082
0.767082
0.767082
0.755656607424
0.424198698119
0.000502945501922
6.55687672367e-05
3.16564133074e-05
2.34830143054e-05
2.02177207276e-05
1.83196320935e-05
1.68751680357e-05
1.5639366423e-05
1.45416954303e-05
1.35563815611e-05
1.26691489016e-05
1.18661486977e-05
1.11278016474e-05
1.04638026011e-05
9.85750960401e-06
9.30216483629e-06
8.78322856222e-06
8.31285599097e-06
7.87069670657e-06
7.46781276934e-06
7.09442878827e-06
6.74024899017e-06
6.41689930351e-06
6.10907700623e-06
5.82199738921e-06
5.55991753592e-06
5.30942539513e-06
5.08127258451e-06
4.8627733369e-06
4.66464564914e-06
4.4742393183e-06
4.29687397128e-06
4.13779038832e-06
3.98470681811e-06
3.84295933711e-06