/*--------------------------------*- C++ -*----------------------------------*\
| =========                 |                                                 |
| \\      /  F ield         | foam-extend: Open Source CFD                    |
|  \\    /   O peration     | Version:     4.1                                |
|   \\  /    A nd           | Web:         http://www.foam-extend.org         |
|    \\/     M anipulation  |                                                 |
\*---------------------------------------------------------------------------*/
FoamFile
{
    version     2.0;
    format      ascii;
    class       volScalarField;
    location    "0.0005";
    object      N2Plus;
}
// * * * * * * * * * * * * * * * * * * * * * * * * * * * * * * * * * * * * * //

dimensions      [0 0 0 0 0 0 0];

internalField   nonuniform List<scalar> 
8400
(
7.21720707647e-185
7.21720707651e-185
7.21720707655e-185
7.21720707659e-185
7.21720707663e-185
7.21720707667e-185
7.21720707671e-185
7.21720707675e-185
7.21720707679e-185
7.21720707683e-185
7.21720707687e-185
7.2172070769e-185
7.21720707694e-185
7.21720707697e-185
7.21720707701e-185
7.21720707704e-185
7.21720707707e-185
7.21720707711e-185
7.21720707714e-185
7.21720707734e-185
7.21720708741e-185
7.21720769202e-185
7.21724306634e-185
7.21929535999e-185
7.28835934049e-185
1.66507009206e-71
4.30460290045e-18
8.24503495831e-06
1.9373017888e-05
1.24624722022e-05
9.38472694822e-06
8.30973047899e-06
7.97959021429e-06
7.85917393101e-06
7.79458960577e-06
7.75115263428e-06
7.71218021506e-06
7.67528808769e-06
7.63952611856e-06
7.6043028849e-06
7.57293195621e-06
7.53761921509e-06
7.50164925467e-06
7.46495544993e-06
7.42703910635e-06
7.38765981395e-06
7.34670331811e-06
7.3038026199e-06
7.25894789115e-06
7.21196626454e-06
7.16318269947e-06
7.11586298885e-06
7.06314020115e-06
7.00876825444e-06
6.95324265444e-06
6.896770742e-06
6.83973939739e-06
6.78266567658e-06
6.72632517397e-06
6.67132915626e-06
6.61816936336e-06
6.57127491992e-06
6.52419337496e-06
6.48129948642e-06
6.44336157622e-06
6.41075742739e-06
6.38415213331e-06
6.36381973048e-06
6.35008727773e-06
6.34030317695e-06
7.21720706559e-185
7.2172070656e-185
7.21720706562e-185
7.21720706564e-185
7.21720706565e-185
7.21720706567e-185
7.21720706569e-185
7.2172070657e-185
7.21720706572e-185
7.21720706573e-185
7.21720706575e-185
7.21720706576e-185
7.21720706578e-185
7.21720706579e-185
7.21720706581e-185
7.21720706582e-185
7.21720706584e-185
7.21720706585e-185
7.21720706588e-185
7.21720706688e-185
7.21720712644e-185
7.21721069415e-185
7.21741417027e-185
7.22925647101e-185
7.43100803914e-185
8.7128224613e-47
9.02265092272e-09
2.71518682221e-05
1.57600935173e-05
1.06007758978e-05
8.5483733753e-06
7.91503536741e-06
7.72664515861e-06
7.66005068576e-06
7.63202575236e-06
7.60461947084e-06
7.58073664255e-06
7.55574907933e-06
7.52936424888e-06
7.50167810238e-06
7.47247689014e-06
7.44156891704e-06
7.40885977875e-06
7.37417507124e-06
7.33765677565e-06
7.29900143747e-06
7.25820705239e-06
7.21512139782e-06
7.16970669453e-06
7.12195643544e-06
7.07235882136e-06
7.02069381614e-06
6.96719553799e-06
6.91237482845e-06
6.85645787283e-06
6.7997777311e-06
6.74305466252e-06
6.68676439893e-06
6.63154348294e-06
6.58095444377e-06
6.52948437211e-06
6.48087191319e-06
6.43574966897e-06
6.39507128037e-06
6.35906968829e-06
6.32831465859e-06
6.30318587469e-06
6.28402824936e-06
6.27112829787e-06
6.26238891519e-06
7.21720706095e-185
7.21720706096e-185
7.21720706097e-185
7.21720706098e-185
7.21720706099e-185
7.217207061e-185
7.21720706101e-185
7.21720706102e-185
7.21720706103e-185
7.21720706104e-185
7.21720706104e-185
7.21720706105e-185
7.21720706106e-185
7.21720706107e-185
7.21720706108e-185
7.21720706109e-185
7.2172070611e-185
7.21720706111e-185
7.21720706119e-185
7.21720706585e-185
7.21720733779e-185
7.21722319681e-185
7.21810439063e-185
7.26711360832e-185
2.49090328418e-73
3.55354118985e-21
2.85662143326e-06
2.08300472926e-05
1.30041497759e-05
9.3897628798e-06
8.10386617911e-06
7.72154891521e-06
7.61302145369e-06
7.57364641164e-06
7.55121468961e-06
7.53340869148e-06
7.51443313507e-06
7.49391864753e-06
7.4714799644e-06
7.44699502385e-06
7.42038723729e-06
7.39150728873e-06
7.36042237739e-06
7.32704306935e-06
7.29119167934e-06
7.25295492289e-06
7.21213773029e-06
7.16880404933e-06
7.12305381858e-06
7.07521582508e-06
7.02515431351e-06
6.97308289474e-06
6.91965799691e-06
6.86489554853e-06
6.80917312806e-06
6.75324431802e-06
6.69745316906e-06
6.64239846584e-06
6.58848496839e-06
6.53630247794e-06
6.48684802109e-06
6.44030919468e-06
6.40057521395e-06
6.36183229653e-06
6.32773058818e-06
6.29863202395e-06
6.27502943995e-06
6.257161984e-06
6.24513621147e-06
6.23718198869e-06
7.21720705839e-185
7.2172070584e-185
7.21720705841e-185
7.21720705841e-185
7.21720705842e-185
7.21720705843e-185
7.21720705843e-185
7.21720705844e-185
7.21720705845e-185
7.21720705846e-185
7.21720705846e-185
7.21720705847e-185
7.21720705847e-185
7.21720705848e-185
7.21720705849e-185
7.21720705849e-185
7.2172070585e-185
7.21720705851e-185
7.21720705889e-185
7.21720708132e-185
7.21720842044e-185
7.21728531525e-185
7.22176247426e-185
7.32420799296e-185
4.61431003975e-71
2.84941660666e-15
2.03912966178e-05
1.74176655652e-05
1.13330707637e-05
8.76515833405e-06
7.94127381958e-06
7.69435103459e-06
7.61964265051e-06
7.58829628284e-06
7.56418978662e-06
7.54380182201e-06
7.5222837448e-06
7.49945519078e-06
7.47490975385e-06
7.44842215129e-06
7.41988613338e-06
7.38909967101e-06
7.35609361028e-06
7.32080926203e-06
7.28304023628e-06
7.2428772047e-06
7.20015479463e-06
7.15495476916e-06
7.10744729707e-06
7.05791356021e-06
7.0063010192e-06
6.95284678582e-06
6.89833132687e-06
6.84267702103e-06
6.78631212827e-06
6.73010475587e-06
6.67426762516e-06
6.61936192989e-06
6.56909993275e-06
6.51771624005e-06
6.46891219615e-06
6.42331470528e-06
6.3815651422e-06
6.34393473144e-06
6.31089338987e-06
6.2827786444e-06
6.26002153717e-06
6.24281863078e-06
6.23124062943e-06
6.22372045748e-06
7.21720705681e-185
7.21720705681e-185
7.21720705682e-185
7.21720705683e-185
7.21720705683e-185
7.21720705684e-185
7.21720705684e-185
7.21720705685e-185
7.21720705685e-185
7.21720705686e-185
7.21720705686e-185
7.21720705687e-185
7.21720705687e-185
7.21720705688e-185
7.21720705688e-185
7.21720705689e-185
7.21720705689e-185
7.21720705692e-185
7.21720705829e-185
7.21720713981e-185
7.21721201114e-185
7.21749059008e-185
7.23378632353e-185
7.48834825716e-185
3.86434549799e-36
6.63128211899e-08
2.54005119604e-05
1.51589526062e-05
1.03489813056e-05
8.48115991398e-06
7.91762600061e-06
7.74987991112e-06
7.69260479748e-06
7.66511776557e-06
7.63753028477e-06
7.6126403049e-06
7.58640819835e-06
7.55865761004e-06
7.52920303939e-06
7.49811855147e-06
7.46514600935e-06
7.4300476745e-06
7.39275718698e-06
7.35320856742e-06
7.31155807466e-06
7.26754680496e-06
7.22129243879e-06
7.17269275927e-06
7.12185604944e-06
7.06921912478e-06
7.01482477569e-06
6.95888263533e-06
6.90191668538e-06
6.84424456321e-06
6.78950485692e-06
6.73164483475e-06
6.67434521261e-06
6.61861304959e-06
6.56461697889e-06
6.51289599339e-06
6.46391925231e-06
6.41818038462e-06
6.37655733931e-06
6.33914200757e-06
6.30636852562e-06
6.27854683275e-06
6.25594837936e-06
6.23889147645e-06
6.22744358491e-06
6.22009234037e-06
7.21720705575e-185
7.21720705576e-185
7.21720705576e-185
7.21720705577e-185
7.21720705577e-185
7.21720705577e-185
7.21720705578e-185
7.21720705578e-185
7.21720705579e-185
7.21720705579e-185
7.2172070558e-185
7.2172070558e-185
7.2172070558e-185
7.21720705581e-185
7.21720705581e-185
7.21720705582e-185
7.21720705582e-185
7.21720705589e-185
7.21720705947e-185
7.21720727077e-185
7.21721971282e-185
7.21791865475e-185
7.25749803827e-185
7.75037159932e-185
3.42039283008e-24
1.48598853475e-06
2.18274342839e-05
1.36515338431e-05
9.79520348736e-06
8.41428417679e-06
8.00303358064e-06
7.87747572325e-06
7.82467741879e-06
7.79138333219e-06
7.75711836292e-06
7.72572886981e-06
7.69315351684e-06
7.65924912097e-06
7.62392476193e-06
7.58683603763e-06
7.54789699258e-06
7.50700609092e-06
7.46432414624e-06
7.41946327328e-06
7.37240297734e-06
7.32324797321e-06
7.27212201483e-06
7.21899849353e-06
7.16390849283e-06
7.10697783294e-06
7.05184336765e-06
6.99238302678e-06
6.93219579014e-06
6.87143014222e-06
6.81055942831e-06
6.75042778772e-06
6.69115780604e-06
6.63336052108e-06
6.57781643709e-06
6.5248449838e-06
6.47483143507e-06
6.43151396857e-06
6.38906064565e-06
6.35118206105e-06
6.31802278848e-06
6.28992664454e-06
6.26714752424e-06
6.24986944741e-06
6.23822059382e-06
6.23080673314e-06
7.21720705501e-185
7.21720705501e-185
7.21720705501e-185
7.21720705502e-185
7.21720705502e-185
7.21720705503e-185
7.21720705503e-185
7.21720705503e-185
7.21720705504e-185
7.21720705504e-185
7.21720705504e-185
7.21720705505e-185
7.21720705505e-185
7.21720705505e-185
7.21720705506e-185
7.21720705506e-185
7.21720705507e-185
7.21720705521e-185
7.21720706369e-185
7.21720758103e-185
7.21723836072e-185
7.21904110982e-185
7.2852989487e-185
1.36008936778e-71
1.72510601487e-18
7.26424128325e-06
1.96051823222e-05
1.26069487696e-05
9.51123830433e-06
8.46750452884e-06
8.16358474713e-06
8.05296760793e-06
7.99993846612e-06
7.95923823372e-06
7.92003636352e-06
7.87690477347e-06
7.83658225476e-06
7.79524878399e-06
7.75252578671e-06
7.70826110487e-06
7.6623421271e-06
7.6149410665e-06
7.56560619561e-06
7.51428612435e-06
7.46115477004e-06
7.40937243713e-06
7.35253530336e-06
7.29378595299e-06
7.23323351248e-06
7.17153688599e-06
7.10850616393e-06
7.04448507613e-06
6.98019398899e-06
6.91579710126e-06
6.8516052805e-06
6.78801711862e-06
6.72603360782e-06
6.66912953015e-06
6.61103095284e-06
6.55605110061e-06
6.50427742684e-06
6.45621955226e-06
6.41258005493e-06
6.37359869655e-06
6.33961427197e-06
6.31089684606e-06
6.28760314183e-06
6.26992920776e-06
6.2580121725e-06
6.25050398054e-06
7.21720705446e-185
7.21720705446e-185
7.21720705446e-185
7.21720705447e-185
7.21720705447e-185
7.21720705447e-185
7.21720705448e-185
7.21720705448e-185
7.21720705448e-185
7.21720705449e-185
7.21720705449e-185
7.21720705449e-185
7.2172070545e-185
7.2172070545e-185
7.2172070545e-185
7.2172070545e-185
7.21720705451e-185
7.21720705488e-185
7.21720707692e-185
7.21720839293e-185
7.21728404719e-185
7.22168397825e-185
7.32388196615e-185
4.48580486277e-71
2.05344460414e-15
1.93602489518e-05
1.78632122464e-05
1.18909162649e-05
9.39184646988e-06
8.6074130061e-06
8.3677142583e-06
8.27322003925e-06
8.21392992918e-06
8.16375194804e-06
8.11448724589e-06
8.06518934878e-06
8.01568895533e-06
7.96545830235e-06
7.91424711162e-06
7.86180401426e-06
7.80796876782e-06
7.752879463e-06
7.69608566782e-06
7.63753259689e-06
7.57754604865e-06
7.51572833756e-06
7.45220932211e-06
7.38738621905e-06
7.32123064482e-06
7.25377900037e-06
7.18532244256e-06
7.11652667926e-06
7.05071097045e-06
6.98186779219e-06
6.91360236447e-06
6.84630931824e-06
6.78090366513e-06
6.7176071478e-06
6.65688587811e-06
6.59918872413e-06
6.54524649987e-06
6.4953992763e-06
6.45334264268e-06
6.41273302363e-06
6.37753810583e-06
6.34779134271e-06
6.32367278114e-06
6.30543774469e-06
6.29310159432e-06
6.2854203795e-06
7.21720705404e-185
7.21720705404e-185
7.21720705405e-185
7.21720705405e-185
7.21720705405e-185
7.21720705405e-185
7.21720705406e-185
7.21720705406e-185
7.21720705406e-185
7.21720705406e-185
7.21720705407e-185
7.21720705407e-185
7.21720705407e-185
7.21720705408e-185
7.21720705408e-185
7.21720705408e-185
7.2172070541e-185
7.21720705495e-185
7.21720710682e-185
7.21721024921e-185
7.21739205468e-185
7.22806236621e-185
7.41669201497e-185
5.93303745015e-47
2.93218416808e-09
2.81651420463e-05
1.64697188922e-05
1.13875037749e-05
9.39250313411e-06
8.79672002891e-06
8.61375028367e-06
8.52512159196e-06
8.45832322589e-06
8.39843030281e-06
8.33913345663e-06
8.27965865871e-06
8.21994283994e-06
8.15996685106e-06
8.09917762987e-06
8.03757718141e-06
7.97507534276e-06
7.91151032736e-06
7.84648067587e-06
7.77999842311e-06
7.71234320364e-06
7.64311844132e-06
7.57261381186e-06
7.50091681417e-06
7.43154456191e-06
7.35801920977e-06
7.2837375082e-06
7.20921937481e-06
7.13490865753e-06
7.0609565739e-06
6.98829184363e-06
6.9171191887e-06
6.84770492067e-06
6.78407677202e-06
6.72016947964e-06
6.65961683593e-06
6.6030050603e-06
6.55091074927e-06
6.50363994216e-06
6.46148168108e-06
6.42475712628e-06
6.39370728663e-06
6.3685471815e-06
6.34955866637e-06
6.3367194029e-06
6.3287980076e-06
7.21720705371e-185
7.21720705371e-185
7.21720705372e-185
7.21720705372e-185
7.21720705372e-185
7.21720705372e-185
7.21720705373e-185
7.21720705373e-185
7.21720705373e-185
7.21720705373e-185
7.21720705374e-185
7.21720705374e-185
7.21720705374e-185
7.21720705374e-185
7.21720705374e-185
7.21720705375e-185
7.21720705378e-185
7.21720705578e-185
7.21720717446e-185
7.21721421696e-185
7.2176129995e-185
7.24054299321e-185
7.56729165675e-185
9.71302754403e-34
2.3855330149e-07
2.45391320414e-05
1.53713350637e-05
1.10770899432e-05
9.51005262914e-06
9.04250809598e-06
8.89225711414e-06
8.80165112707e-06
8.73001587484e-06
8.65984682578e-06
8.59014867806e-06
8.52010123754e-06
8.44993546602e-06
8.37954712822e-06
8.30870847154e-06
8.23712617784e-06
8.16497611279e-06
8.0919255167e-06
8.017769803e-06
7.94279974176e-06
7.87017978051e-06
7.79306420938e-06
7.71482150887e-06
7.63557583945e-06
7.55578710674e-06
7.47529331953e-06
7.39485943716e-06
7.31455350351e-06
7.23451259498e-06
7.1589013569e-06
7.0811634589e-06
7.00510592775e-06
6.93158285241e-06
6.86091292529e-06
6.79339434837e-06
6.72967510348e-06
6.67036722882e-06
6.6191508984e-06
6.56952896651e-06
6.52531463395e-06
6.48678055631e-06
6.45449941932e-06
6.42835143233e-06
6.40849139632e-06
6.39503369681e-06
6.38685101424e-06
7.21720705344e-185
7.21720705345e-185
7.21720705345e-185
7.21720705345e-185
7.21720705345e-185
7.21720705346e-185
7.21720705346e-185
7.21720705346e-185
7.21720705346e-185
7.21720705347e-185
7.21720705347e-185
7.21720705347e-185
7.21720705347e-185
7.21720705347e-185
7.21720705348e-185
7.21720705348e-185
7.21720705355e-185
7.21720705765e-185
7.21720729737e-185
7.2172212745e-185
7.2179990931e-185
7.26142226835e-185
7.79514204922e-185
2.08164151773e-23
1.64368618654e-06
2.22691074761e-05
1.44687284404e-05
1.09206276896e-05
9.70009672671e-06
9.34996273851e-06
9.21566136712e-06
9.1181624214e-06
9.03348672862e-06
8.95022418052e-06
8.86792306122e-06
8.78606295144e-06
8.70421339129e-06
8.62232293705e-06
8.54042865565e-06
8.45806020217e-06
8.37912280707e-06
8.29601981921e-06
8.21212362669e-06
8.12763383697e-06
8.04252418498e-06
7.95667044543e-06
7.86998388439e-06
7.78302634687e-06
7.69574206338e-06
7.61163740386e-06
7.52436903427e-06
7.43735282734e-06
7.35138083966e-06
7.26653893331e-06
7.18355210184e-06
7.10286902122e-06
7.02822909634e-06
6.95310546821e-06
6.88194107128e-06
6.81498811092e-06
6.75250723261e-06
6.69492613716e-06
6.64304833055e-06
6.59685978399e-06
6.55676290246e-06
6.52622234177e-06
6.49884955383e-06
6.47810761974e-06
6.4639920751e-06
6.45544480565e-06
7.21720705323e-185
7.21720705323e-185
7.21720705323e-185
7.21720705323e-185
7.21720705324e-185
7.21720705324e-185
7.21720705324e-185
7.21720705324e-185
7.21720705324e-185
7.21720705325e-185
7.21720705325e-185
7.21720705325e-185
7.21720705325e-185
7.21720705325e-185
7.21720705326e-185
7.21720705326e-185
7.21720705341e-185
7.21720706213e-185
7.21720759061e-185
7.21723886851e-185
7.21905517455e-185
7.28689859753e-185
1.30737240549e-71
1.29417338951e-18
6.35673587992e-06
2.05180683587e-05
1.38192560195e-05
1.09115316961e-05
9.97479335727e-06
9.70879712479e-06
9.57712518491e-06
9.46747363233e-06
9.36696549715e-06
9.26896791769e-06
9.17229935235e-06
9.07645775376e-06
8.98168610767e-06
8.89105161637e-06
8.79674281459e-06
8.70295919207e-06
8.60888545259e-06
8.51496027687e-06
8.42081571952e-06
8.32615301951e-06
8.23133866508e-06
8.13970716431e-06
8.04434410554e-06
7.94867873146e-06
7.85318548614e-06
7.75810227087e-06
7.66342582971e-06
7.56975631687e-06
7.48101987362e-06
7.39014974988e-06
7.30152419662e-06
7.21565890374e-06
7.13276654205e-06
7.0533915081e-06
6.98168134457e-06
6.91103409426e-06
6.84542383394e-06
6.78507662457e-06
6.73037090147e-06
6.68199734048e-06
6.63995432783e-06
6.6045908178e-06
6.57596356093e-06
6.55418717756e-06
6.53933558166e-06
6.53040862557e-06
7.21720705305e-185
7.21720705305e-185
7.21720705305e-185
7.21720705305e-185
7.21720705305e-185
7.21720705305e-185
7.21720705306e-185
7.21720705306e-185
7.21720705306e-185
7.21720705306e-185
7.21720705306e-185
7.21720705307e-185
7.21720705307e-185
7.21720705307e-185
7.21720705307e-185
7.21720705308e-185
7.21720705346e-185
7.21720707598e-185
7.21720840737e-185
7.21728428201e-185
7.22164086125e-185
7.32478010899e-185
4.22151042909e-71
1.01463704671e-15
1.69202086824e-05
1.89922407757e-05
1.3311660266e-05
1.09999210413e-05
1.03179428142e-05
1.01094196188e-05
9.97196994352e-06
9.8480584331e-06
9.73047053882e-06
9.61530122728e-06
9.50593387042e-06
9.39496678701e-06
9.28537251178e-06
9.17708390223e-06
9.06962027752e-06
8.96305595282e-06
8.85708286245e-06
8.7512048389e-06
8.64933024982e-06
8.54399005904e-06
8.43888048164e-06
8.3335899394e-06
8.2288684767e-06
8.12418059865e-06
8.02398347869e-06
7.92069734829e-06
7.81829848525e-06
7.71752075201e-06
7.61833934898e-06
7.52125438427e-06
7.43043857462e-06
7.33910281565e-06
7.25119151188e-06
7.16721364281e-06
7.08793501164e-06
7.01354469378e-06
6.94800376959e-06
6.88471053827e-06
6.82747736316e-06
6.77662169688e-06
6.73248538492e-06
6.6954564997e-06
6.66545308517e-06
6.6426540674e-06
6.62709081014e-06
6.61780448162e-06
7.21720705289e-185
7.21720705289e-185
7.21720705289e-185
7.2172070529e-185
7.2172070529e-185
7.2172070529e-185
7.2172070529e-185
7.2172070529e-185
7.21720705291e-185
7.21720705291e-185
7.21720705291e-185
7.21720705291e-185
7.21720705291e-185
7.21720705291e-185
7.21720705292e-185
7.21720705293e-185
7.21720705385e-185
7.21720710845e-185
7.2172103672e-185
7.2173970136e-185
7.22822336682e-185
7.4203154103e-185
5.4568551027e-47
1.62475506744e-09
2.86407755963e-05
1.76941846972e-05
1.29632910215e-05
1.1200552345e-05
1.07181839079e-05
1.05431979884e-05
1.03989922563e-05
1.025729781e-05
1.01244871049e-05
9.9906781846e-06
9.86029663601e-06
9.73235985894e-06
9.6070174383e-06
9.48328210588e-06
9.36155342835e-06
9.24478716425e-06
9.12529908149e-06
9.00707987201e-06
8.88944554728e-06
8.77259634363e-06
8.6600710731e-06
8.5445670806e-06
8.42979132118e-06
8.31567032973e-06
8.20279438628e-06
8.09094583713e-06
7.98434748977e-06
7.87600012002e-06
7.76953249835e-06
7.66609054359e-06
7.56563886001e-06
7.47223955262e-06
7.37914166586e-06
7.29032697781e-06
7.20666077455e-06
7.1284294258e-06
7.0559516316e-06
6.98945589572e-06
6.93301952986e-06
6.87991164917e-06
6.8338187391e-06
6.79504846984e-06
6.76362404822e-06
6.73974488871e-06
6.72338665294e-06
6.71368554727e-06
7.21720705276e-185
7.21720705276e-185
7.21720705276e-185
7.21720705276e-185
7.21720705277e-185
7.21720705277e-185
7.21720705277e-185
7.21720705277e-185
7.21720705277e-185
7.21720705277e-185
7.21720705278e-185
7.21720705278e-185
7.21720705278e-185
7.21720705278e-185
7.21720705278e-185
7.21720705282e-185
7.21720705522e-185
7.217207196e-185
7.21721543183e-185
7.21767589028e-185
7.24368494897e-185
7.60568223076e-185
7.30085366593e-33
2.75544696558e-07
2.52669743533e-05
1.66116346096e-05
1.27924348668e-05
1.15049599717e-05
1.11687713004e-05
1.10059574111e-05
1.0848875775e-05
1.06919169532e-05
1.05366158847e-05
1.03844335478e-05
1.02354500544e-05
1.00903814176e-05
9.95164776309e-06
9.81188646604e-06
9.67458868139e-06
9.53922355828e-06
9.40590271416e-06
9.27779931072e-06
9.14718850491e-06
9.01818223901e-06
8.89016548477e-06
8.76365155904e-06
8.64225930375e-06
8.51815591736e-06
8.39585376068e-06
8.27502703526e-06
8.15656630972e-06
8.04416234787e-06
7.93071175522e-06
7.82020763508e-06
7.7133183245e-06
7.6105444584e-06
7.5158357822e-06
7.42226560392e-06
7.33413775731e-06
7.25159822118e-06
7.17534454786e-06
7.10573737006e-06
7.04300093497e-06
6.99116748756e-06
6.94290866517e-06
6.90237045303e-06
6.86951142783e-06
6.8444259031e-06
6.82718047291e-06
6.81699027523e-06
7.21720705264e-185
7.21720705264e-185
7.21720705265e-185
7.21720705265e-185
7.21720705265e-185
7.21720705265e-185
7.21720705265e-185
7.21720705265e-185
7.21720705266e-185
7.21720705266e-185
7.21720705266e-185
7.21720705266e-185
7.21720705266e-185
7.21720705266e-185
7.21720705267e-185
7.21720705277e-185
7.2172070584e-185
7.21720738104e-185
7.21722575739e-185
7.2182251259e-185
7.27201278754e-185
9.63472754046e-73
3.25552054519e-21
2.30105492843e-06
2.28012351172e-05
1.58012892546e-05
1.28302673908e-05
1.19098488134e-05
1.16757900607e-05
1.15055727265e-05
1.13278404893e-05
1.11479668006e-05
1.09708564577e-05
1.0798523019e-05
1.06341934595e-05
1.0470164744e-05
1.03097256972e-05
1.0152671268e-05
9.99914323451e-06
9.85217209076e-06
9.70350900757e-06
9.5576644293e-06
9.41359408726e-06
9.27567410076e-06
9.13553866249e-06
8.99723932699e-06
8.86103503286e-06
8.73064024257e-06
8.59831605524e-06
8.46859787877e-06
8.34118429809e-06
8.21704902097e-06
8.0997826351e-06
7.98243794763e-06
7.86915058663e-06
7.76016053402e-06
7.65636081377e-06
7.56175995535e-06
7.46895545531e-06
7.38226674189e-06
7.30239479492e-06
7.22951712165e-06
7.16390950565e-06
7.10953129671e-06
7.05916345125e-06
7.01671878698e-06
6.98237979542e-06
6.95613013171e-06
6.93799366458e-06
6.9273684898e-06
7.21720705254e-185
7.21720705254e-185
7.21720705255e-185
7.21720705255e-185
7.21720705255e-185
7.21720705255e-185
7.21720705255e-185
7.21720705255e-185
7.21720705255e-185
7.21720705256e-185
7.21720705256e-185
7.21720705256e-185
7.21720705256e-185
7.21720705256e-185
7.21720705257e-185
7.21720705286e-185
7.21720706983e-185
7.21720806487e-185
7.217264627e-185
7.22047250063e-185
7.31013536468e-185
2.77357929522e-71
4.13652184029e-17
9.97510826259e-06
2.08924420869e-05
1.52339959706e-05
1.29979424362e-05
1.24181947325e-05
1.22319975218e-05
1.20446717652e-05
1.18361089574e-05
1.16290621615e-05
1.14277195086e-05
1.12366339935e-05
1.10469570238e-05
1.08624988146e-05
1.06871491963e-05
1.05119299567e-05
1.03410391457e-05
1.01735802066e-05
1.00137772284e-05
9.85269586439e-06
9.69475356291e-06
9.5392291773e-06
9.39060208836e-06
9.24008270834e-06
9.09248532745e-06
8.94727839304e-06
8.80913585985e-06
8.66970592023e-06
8.53371427148e-06
8.40105543971e-06
8.27634204212e-06
8.15184043434e-06
8.03192537914e-06
7.91687643399e-06
7.80751551432e-06
7.70788149648e-06
7.61053984002e-06
7.51991254151e-06
7.43615209983e-06
7.35979870764e-06
7.29120974605e-06
7.23466636099e-06
7.18207846281e-06
7.13780254012e-06
7.10186330277e-06
7.07435309356e-06
7.05529061099e-06
7.04404420955e-06
7.21720705245e-185
7.21720705246e-185
7.21720705246e-185
7.21720705246e-185
7.21720705246e-185
7.21720705246e-185
7.21720705246e-185
7.21720705246e-185
7.21720705247e-185
7.21720705247e-185
7.21720705247e-185
7.21720705247e-185
7.21720705247e-185
7.21720705247e-185
7.21720705249e-185
7.21720705335e-185
7.21720710301e-185
7.21720998101e-185
7.21737089422e-185
7.22652959799e-185
7.3978818499e-185
1.36270213386e-47
5.92169978028e-11
2.56521608641e-05
1.93262680106e-05
1.49063150151e-05
1.33428713074e-05
1.29892376809e-05
1.28210246082e-05
1.26064621764e-05
1.23668344583e-05
1.21355414656e-05
1.19082397559e-05
1.16882542465e-05
1.14799865872e-05
1.12739397172e-05
1.10740459692e-05
1.08798975519e-05
1.06946624854e-05
1.05098318228e-05
1.03295476024e-05
1.01572116095e-05
9.98447994461e-06
9.81510614104e-06
9.64942369113e-06
9.49084452666e-06
9.33127476639e-06
9.17530970409e-06
9.02674294926e-06
8.87781867923e-06
8.73265165453e-06
8.59145212971e-06
8.45906492088e-06
8.32727056338e-06
8.20055384282e-06
8.07938923952e-06
7.96438487002e-06
7.85967353006e-06
7.75766894845e-06
7.66284345546e-06
7.57554395336e-06
7.49603708261e-06
7.42438916376e-06
7.36536659168e-06
7.31041818301e-06
7.26417782801e-06
7.22675510821e-06
7.19804945969e-06
7.17810388386e-06
7.16637995034e-06
7.21720705237e-185
7.21720705238e-185
7.21720705238e-185
7.21720705238e-185
7.21720705238e-185
7.21720705238e-185
7.21720705238e-185
7.21720705238e-185
7.21720705239e-185
7.21720705239e-185
7.21720705239e-185
7.21720705239e-185
7.21720705239e-185
7.21720705239e-185
7.21720705244e-185
7.21720705523e-185
7.21720721652e-185
7.21721650714e-185
7.21772878958e-185
7.24610014972e-185
7.63580010423e-185
1.01438694474e-32
2.69926794721e-07
2.63457155026e-05
1.81219415708e-05
1.48085248553e-05
1.38096498578e-05
1.36168792265e-05
1.34308844458e-05
1.31841829084e-05
1.29168093651e-05
1.26533554759e-05
1.23991122694e-05
1.21580463569e-05
1.19213907047e-05
1.16931807413e-05
1.1475979692e-05
1.12617410365e-05
1.10533818414e-05
1.08549792518e-05
1.06577411527e-05
1.04651575849e-05
1.02814167356e-05
1.00979168025e-05
9.91834926644e-06
9.74720024805e-06
9.57596695485e-06
9.40872004214e-06
9.24982232999e-06
9.09102441523e-06
8.93645774238e-06
8.78701994049e-06
8.6467217381e-06
8.50761926374e-06
8.37438449332e-06
8.24695310887e-06
8.13051400452e-06
8.01661094739e-06
7.91003060754e-06
7.81097338656e-06
7.71966807316e-06
7.63677680474e-06
7.5668663086e-06
7.50105937722e-06
7.4440486053e-06
7.39592433127e-06
7.35678230275e-06
7.32684722221e-06
7.30595414905e-06
7.29359597999e-06
7.2172070523e-185
7.21720705231e-185
7.21720705231e-185
7.21720705231e-185
7.21720705231e-185
7.21720705231e-185
7.21720705231e-185
7.21720705231e-185
7.21720705231e-185
7.21720705232e-185
7.21720705232e-185
7.21720705232e-185
7.21720705232e-185
7.21720705232e-185
7.21720705247e-185
7.21720706057e-185
7.21720752671e-185
7.21723446515e-185
7.21875842303e-185
7.28550871116e-185
7.84566806344e-72
8.74649979386e-20
3.40694642029e-06
2.33620937628e-05
1.73131122797e-05
1.49693061396e-05
1.44267036314e-05
1.42881828936e-05
1.40681409131e-05
1.37759405065e-05
1.34752958981e-05
1.31822525072e-05
1.2904634479e-05
1.26331814633e-05
1.23762675006e-05
1.21246606408e-05
1.18857560002e-05
1.16508449237e-05
1.14227798576e-05
1.12064223516e-05
1.09913872408e-05
1.07824589548e-05
1.05835465673e-05
1.0385198714e-05
1.01921777148e-05
1.00082176987e-05
9.82465052432e-06
9.64579473839e-06
9.47656137639e-06
9.30786217053e-06
9.14424387532e-06
8.98612821242e-06
8.83840664487e-06
8.69170686562e-06
8.55169884478e-06
8.41848837722e-06
8.29654156407e-06
8.17760133831e-06
8.0664514792e-06
7.96325566058e-06
7.86823921315e-06
7.78654537245e-06
7.7091647932e-06
7.64085868299e-06
7.58167802038e-06
7.53184215166e-06
7.49129996216e-06
7.46013660331e-06
7.43822456615e-06
7.42519867514e-06
7.21720705224e-185
7.21720705224e-185
7.21720705224e-185
7.21720705224e-185
7.21720705225e-185
7.21720705225e-185
7.21720705225e-185
7.21720705225e-185
7.21720705225e-185
7.21720705225e-185
7.21720705225e-185
7.21720705225e-185
7.21720705226e-185
7.21720705227e-185
7.21720705287e-185
7.21720708726e-185
7.21720904972e-185
7.21731714785e-185
7.22329200337e-185
7.35178072432e-185
5.29533958298e-71
4.11669220475e-15
1.6210996782e-05
2.13386337845e-05
1.6864718627e-05
1.53883191398e-05
1.51506175084e-05
1.50025537949e-05
1.47177882161e-05
1.43819581895e-05
1.40495439157e-05
1.37247499752e-05
1.34179650387e-05
1.31196930313e-05
1.28331531109e-05
1.25616261041e-05
1.22960743517e-05
1.20441513291e-05
1.17961521102e-05
1.15609378099e-05
1.13282980484e-05
1.11027795077e-05
1.08881709249e-05
1.06751662872e-05
1.04680017728e-05
1.02714598173e-05
1.00756603273e-05
9.88561800917e-06
9.70575626725e-06
9.5271408624e-06
9.35453309916e-06
9.19268504982e-06
9.03211496707e-06
8.87862362107e-06
8.73207423317e-06
8.59721916981e-06
8.46537372274e-06
8.3414681969e-06
8.22585077812e-06
8.12336507911e-06
8.02491787211e-06
7.93543768284e-06
7.85524194109e-06
7.78446411279e-06
7.72309392789e-06
7.67121841659e-06
7.63383494724e-06
7.6013148602e-06
7.57833361424e-06
7.56458113584e-06
7.21720705218e-185
7.21720705218e-185
7.21720705219e-185
7.21720705219e-185
7.21720705219e-185
7.21720705219e-185
7.21720705219e-185
7.21720705219e-185
7.21720705219e-185
7.21720705219e-185
7.21720705219e-185
7.2172070522e-185
7.2172070522e-185
7.21720705224e-185
7.21720705462e-185
7.21720718971e-185
7.21721485067e-185
7.21763246762e-185
7.24050905979e-185
7.57658409949e-185
1.44208275279e-35
8.88823239654e-08
2.87400915336e-05
1.98574400082e-05
1.67969845102e-05
1.60063996152e-05
1.5927007864e-05
1.57238626294e-05
1.53729637188e-05
1.49971630926e-05
1.46245701705e-05
1.42719610721e-05
1.39309640453e-05
1.36088206081e-05
1.32963474098e-05
1.30006432036e-05
1.27120505441e-05
1.24387022377e-05
1.2170540411e-05
1.19161352911e-05
1.16657448599e-05
1.14230715568e-05
1.1193156592e-05
1.0965155791e-05
1.07445081139e-05
1.05349176373e-05
1.03272964635e-05
1.01305971725e-05
9.93575729444e-06
9.74746198023e-06
9.56549659186e-06
9.3952659121e-06
9.22740264032e-06
9.06680020811e-06
8.91867146054e-06
8.77338852079e-06
8.63620080176e-06
8.50737184215e-06
8.39235733882e-06
8.2812067631e-06
8.17929497387e-06
8.08680759572e-06
8.00363526749e-06
7.93041579e-06
7.87181252855e-06
7.81824696344e-06
7.77455045689e-06
7.7407561862e-06
7.71671706944e-06
7.70220566425e-06
7.21720705213e-185
7.21720705213e-185
7.21720705213e-185
7.21720705213e-185
7.21720705214e-185
7.21720705214e-185
7.21720705214e-185
7.21720705214e-185
7.21720705214e-185
7.21720705214e-185
7.21720705214e-185
7.21720705214e-185
7.21720705215e-185
7.21720705231e-185
7.21720706125e-185
7.21720756426e-185
7.21723606857e-185
7.21882483623e-185
7.28816239838e-185
7.55224417548e-72
6.78813452442e-20
2.85667865207e-06
2.46180547076e-05
1.90121296681e-05
1.70913412178e-05
1.67850548347e-05
1.67245291902e-05
1.64325044512e-05
1.60276758865e-05
1.56057381231e-05
1.52021111717e-05
1.48128131889e-05
1.44463588712e-05
1.40963052511e-05
1.37572733656e-05
1.34372639375e-05
1.31257274409e-05
1.2830767692e-05
1.25424517763e-05
1.2269256233e-05
1.20007405342e-05
1.17417676625e-05
1.14960627759e-05
1.12533205717e-05
1.1023511651e-05
1.07965365507e-05
1.05770942462e-05
1.03697245228e-05
1.01644676514e-05
9.96654270698e-06
9.78114232272e-06
9.59797828059e-06
9.42255463688e-06
9.26009054961e-06
9.10080308311e-06
8.94984946342e-06
8.80765508195e-06
8.67940208239e-06