/*--------------------------------*- C++ -*----------------------------------*\
| =========                 |                                                 |
| \\      /  F ield         | foam-extend: Open Source CFD                    |
|  \\    /   O peration     | Version:     4.1                                |
|   \\  /    A nd           | Web:         http://www.foam-extend.org         |
|    \\/     M anipulation  |                                                 |
\*---------------------------------------------------------------------------*/
FoamFile
{
    version     2.0;
    format      ascii;
    class       volScalarField;
    location    "0.0005";
    object      NO;
}
// * * * * * * * * * * * * * * * * * * * * * * * * * * * * * * * * * * * * * //

dimensions      [0 0 0 0 0 0 0];

internalField   nonuniform List<scalar> 
8400
(
2.19526275655e-21
2.19526275656e-21
2.19526275656e-21
2.19526275657e-21
2.19526275657e-21
2.19526275658e-21
2.19526275658e-21
2.19526275659e-21
2.19526275659e-21
2.1952627566e-21
2.1952627566e-21
2.19526275661e-21
2.19526275661e-21
2.19526275662e-21
2.19526275662e-21
2.19526275662e-21
2.19526275663e-21
2.19526275663e-21
2.19526275664e-21
2.19526275666e-21
2.19526275789e-21
2.19526283194e-21
2.19526716437e-21
2.19551851636e-21
2.20397703748e-21
4.11857362611e-09
0.0244663084163
0.00138363815331
6.89286390062e-06
1.80470998986e-06
9.01578716986e-07
6.5339669149e-07
5.75481530053e-07
5.48722969948e-07
5.37896422424e-07
5.32212624363e-07
5.27669350564e-07
5.23520494564e-07
5.19531229297e-07
5.15599266489e-07
5.1213049576e-07
5.0820496601e-07
5.04202146488e-07
5.00140308846e-07
4.95941653564e-07
4.91585343048e-07
4.87075502089e-07
4.82347370593e-07
4.77438044955e-07
4.72293352141e-07
4.66986974709e-07
4.61853165869e-07
4.56167306238e-07
4.50320114374e-07
4.44382331296e-07
4.38375432012e-07
4.32331401079e-07
4.26330820031e-07
4.20436323725e-07
4.14705499468e-07
4.09203652559e-07
4.04368380141e-07
3.99537469552e-07
3.95151517154e-07
3.9129519563e-07
3.87980300889e-07
3.85293419314e-07
3.83234471234e-07
3.8183537279e-07
3.80496661254e-07
2.19526275522e-21
2.19526275522e-21
2.19526275523e-21
2.19526275523e-21
2.19526275523e-21
2.19526275523e-21
2.19526275523e-21
2.19526275524e-21
2.19526275524e-21
2.19526275524e-21
2.19526275524e-21
2.19526275524e-21
2.19526275524e-21
2.19526275525e-21
2.19526275525e-21
2.19526275525e-21
2.19526275525e-21
2.19526275525e-21
2.19526275526e-21
2.19526275538e-21
2.19526276267e-21
2.19526319962e-21
2.1952881201e-21
2.19673849047e-21
2.22144775118e-21
8.31268899175e-06
0.00498176028855
8.06298016493e-05
3.42896995384e-06
1.23016962978e-06
7.26266710809e-07
5.82778098371e-07
5.37146354244e-07
5.22228129924e-07
5.17119126556e-07
5.13412548107e-07
5.10422782009e-07
5.0738598774e-07
5.04209609108e-07
5.00917811199e-07
4.97473029906e-07
4.93848398554e-07
4.90060304895e-07
4.860606889e-07
4.81895352469e-07
4.7751122272e-07
4.72925727766e-07
4.68111605128e-07
4.63081921294e-07
4.57819694599e-07
4.52408701662e-07
4.46800032919e-07
4.41041095512e-07
4.35181518487e-07
4.29235674977e-07
4.23259220472e-07
4.17317191679e-07
4.11453641677e-07
4.05749938866e-07
4.00556813464e-07
3.95292741288e-07
3.90360266283e-07
3.85792123161e-07
3.81709414126e-07
3.78098685858e-07
3.75038375191e-07
3.72538039667e-07
3.70627653959e-07
3.69337315569e-07
3.68228338726e-07
2.19526275465e-21
2.19526275465e-21
2.19526275466e-21
2.19526275466e-21
2.19526275466e-21
2.19526275466e-21
2.19526275466e-21
2.19526275466e-21
2.19526275466e-21
2.19526275466e-21
2.19526275466e-21
2.19526275467e-21
2.19526275467e-21
2.19526275467e-21
2.19526275467e-21
2.19526275467e-21
2.19526275467e-21
2.19526275467e-21
2.19526275468e-21
2.19526275525e-21
2.19526278856e-21
2.19526473087e-21
2.19537265394e-21
2.20137499409e-21
6.02859417182e-11
0.0142645100817
0.00192917772306
9.65603429839e-06
2.03526935669e-06
9.23082730187e-07
6.33507153292e-07
5.46220580486e-07
5.19485248507e-07
5.1099097713e-07
5.07356233997e-07
5.04922588525e-07
5.02501139947e-07
4.9996445154e-07
4.97228440849e-07
4.94280503133e-07
4.91131834753e-07
4.87741823454e-07
4.84136089916e-07
4.8030429991e-07
4.76218337828e-07
4.71910883969e-07
4.67337111267e-07
4.62535976201e-07
4.57493097504e-07
4.52267847168e-07
4.46835741081e-07
4.41222154159e-07
4.35514815053e-07
4.29694493082e-07
4.23815232653e-07
4.17958571529e-07
4.12147999959e-07
4.06460285103e-07
4.00927889247e-07
3.95594811831e-07
3.90583325408e-07
3.85880590849e-07
3.81896748495e-07
3.7801854321e-07
3.74629974034e-07
3.71737399996e-07
3.69399728547e-07
3.67635042137e-07
3.66444603807e-07
3.65461805017e-07
2.19526275434e-21
2.19526275434e-21
2.19526275434e-21
2.19526275434e-21
2.19526275434e-21
2.19526275434e-21
2.19526275435e-21
2.19526275435e-21
2.19526275435e-21
2.19526275435e-21
2.19526275435e-21
2.19526275435e-21
2.19526275435e-21
2.19526275435e-21
2.19526275435e-21
2.19526275435e-21
2.19526275435e-21
2.19526275435e-21
2.1952627544e-21
2.19526275715e-21
2.19526292115e-21
2.19527233875e-21
2.19582067297e-21
2.20836755453e-21
1.18362429683e-08
0.0256461732894
0.000745899256288
4.70466408307e-06
1.44705124324e-06
7.77973890502e-07
5.93986276677e-07
5.360057482e-07
5.18273915212e-07
5.1227150954e-07
5.08816340362e-07
5.06173477807e-07
5.03482205357e-07
5.00692864813e-07
4.97732119998e-07
4.94567711332e-07
4.91217789325e-07
4.87631389038e-07
4.83827115568e-07
4.79802767182e-07
4.75524204455e-07
4.71024398185e-07
4.66264012697e-07
4.61279368021e-07
4.56070346942e-07
4.50681673182e-07
4.45108023559e-07
4.39364530838e-07
4.33566655023e-07
4.27678423097e-07
4.217499701e-07
4.15889698263e-07
4.10096976488e-07
4.04435003397e-07
3.99298369419e-07
3.94061805841e-07
3.89128395161e-07
3.84535501945e-07
3.80355563349e-07
3.76600450551e-07
3.73323939015e-07
3.70535576577e-07
3.68287466915e-07
3.66593811359e-07
3.65452215805e-07
3.64541359332e-07
2.19526275415e-21
2.19526275415e-21
2.19526275415e-21
2.19526275415e-21
2.19526275415e-21
2.19526275415e-21
2.19526275415e-21
2.19526275415e-21
2.19526275415e-21
2.19526275415e-21
2.19526275415e-21
2.19526275415e-21
2.19526275415e-21
2.19526275415e-21
2.19526275416e-21
2.19526275416e-21
2.19526275416e-21
2.19526275416e-21
2.19526275433e-21
2.19526276431e-21
2.19526336092e-21
2.19529747952e-21
2.19729327826e-21
2.22847041975e-21
6.41869748581e-05
0.00377683286614
3.7620002282e-05
3.05893821144e-06
1.15903186549e-06
7.0876049036e-07
5.796991909e-07
5.38772753604e-07
5.25902944e-07
5.21135845671e-07
5.17449221667e-07
5.14318293315e-07
5.11096046196e-07
5.07746871531e-07
5.04220913417e-07
5.0054965937e-07
4.9669071206e-07
4.92619383202e-07
4.88341191082e-07
4.83832535264e-07
4.79137319559e-07
4.74203228718e-07
4.69068224544e-07
4.63705657901e-07
4.58137761701e-07
4.52416958248e-07
4.46535054417e-07
4.40543388981e-07
4.34480514871e-07
4.28373864469e-07
4.2263293163e-07
4.16589998693e-07
4.10640990535e-07
4.04911540877e-07
3.99387925323e-07
3.94125513623e-07
3.89174375434e-07
3.84560430711e-07
3.80399644916e-07
3.76663817251e-07
3.73415210047e-07
3.70662157471e-07
3.68425234e-07
3.66744302775e-07
3.6561882714e-07
3.64741264169e-07
2.19526275402e-21
2.19526275402e-21
2.19526275402e-21
2.19526275402e-21
2.19526275402e-21
2.19526275402e-21
2.19526275402e-21
2.19526275402e-21
2.19526275402e-21
2.19526275402e-21
2.19526275402e-21
2.19526275402e-21
2.19526275402e-21
2.19526275402e-21
2.19526275402e-21
2.19526275402e-21
2.19526275403e-21
2.19526275403e-21
2.19526275447e-21
2.19526278035e-21
2.19526430417e-21
2.19534990618e-21
2.20019733966e-21
2.26056138753e-21
0.00711885686879
0.00224006800272
1.22299423012e-05
2.28630365286e-06
1.00676220768e-06
6.80896283012e-07
5.82936430722e-07
5.5179359011e-07
5.41107327274e-07
5.36063207159e-07
5.31655839001e-07
5.27776199839e-07
5.23811023635e-07
5.19730091093e-07
5.15525485171e-07
5.11143044973e-07
5.06596203324e-07
5.01848344239e-07
4.96948746779e-07
4.918265041e-07
4.86506565191e-07
4.80985228544e-07
4.75286628052e-07
4.69412968862e-07
4.6335367348e-07
4.57147611503e-07
4.51179288871e-07
4.44774146865e-07
4.38355080016e-07
4.31914184034e-07
4.25498477538e-07
4.19210394626e-07
4.13055072916e-07
4.07086039925e-07
4.01392940222e-07
3.95996865753e-07
3.90915383349e-07
3.86557836887e-07
3.82286284104e-07
3.7851220609e-07
3.75210525689e-07
3.724258834e-07
3.70176748966e-07
3.68470410586e-07
3.6731970337e-07
3.66437918355e-07
2.19526275393e-21
2.19526275393e-21
2.19526275393e-21
2.19526275393e-21
2.19526275393e-21
2.19526275393e-21
2.19526275393e-21
2.19526275393e-21
2.19526275393e-21
2.19526275393e-21
2.19526275393e-21
2.19526275393e-21
2.19526275393e-21
2.19526275393e-21
2.19526275393e-21
2.19526275393e-21
2.19526275393e-21
2.19526275395e-21
2.19526275499e-21
2.19526281835e-21
2.19526658805e-21
2.1954873774e-21
2.20360221998e-21
3.35336572346e-09
0.0234241651239
0.00145571307856
7.21307267727e-06
1.85072298543e-06
9.23911746508e-07
6.74614683992e-07
5.97847261302e-07
5.71654275261e-07
5.61972810154e-07
5.56263068031e-07
5.51282922974e-07
5.45987117252e-07
5.41072875316e-07
5.36098620288e-07
5.30984105128e-07
5.25750439328e-07
5.20347488937e-07
5.14831542224e-07
5.09122910597e-07
5.03236173542e-07
4.97187213241e-07
4.91328540359e-07
4.84958310459e-07
4.78415129192e-07
4.71715761482e-07
4.64952211473e-07
4.58084872039e-07
4.5115442916e-07
4.44254266501e-07
4.3739414143e-07
4.30598603365e-07
4.23905255257e-07
4.17438156668e-07
4.1154758884e-07
4.05556352364e-07
3.99934245565e-07
3.9466263663e-07
3.89793673514e-07
3.85402466239e-07
3.81494257778e-07
3.78104416803e-07
3.75251808438e-07
3.72937372948e-07
3.71183173881e-07
3.70008377043e-07
3.69127042782e-07
2.19526275386e-21
2.19526275386e-21
2.19526275386e-21
2.19526275386e-21
2.19526275386e-21
2.19526275386e-21
2.19526275386e-21
2.19526275386e-21
2.19526275386e-21
2.19526275386e-21
2.19526275386e-21
2.19526275386e-21
2.19526275386e-21
2.19526275386e-21
2.19526275386e-21
2.19526275386e-21
2.19526275387e-21
2.19526275391e-21
2.19526275661e-21
2.19526291779e-21
2.19527218344e-21
2.19581105927e-21
2.20832762482e-21
1.15018470638e-08
0.0260236423114
0.000799537727024
5.02239829475e-06
1.58385674115e-06
8.78453503134e-07
6.83052424171e-07
6.19872636701e-07
5.97948001146e-07
5.88131066732e-07
5.81365896868e-07
5.75154661968e-07
5.69045876657e-07
5.62979875973e-07
5.56876632547e-07
5.50697885958e-07
5.44436324936e-07
5.38046417164e-07
5.31567074147e-07
5.24940260637e-07
5.18150848541e-07
5.11261474225e-07
5.04211330059e-07
4.97013953127e-07
4.89729975347e-07
4.82357236427e-07
4.7489108783e-07
4.67365475498e-07
4.59861158094e-07
4.5274642031e-07
4.45349263414e-07
4.38067479187e-07
4.30943334891e-07
4.24077092431e-07
4.17472515077e-07
4.11171775924e-07
4.05231895352e-07
3.99710078045e-07
3.94625625641e-07
3.90379386197e-07
3.86279544664e-07
3.82755299997e-07
3.79782451376e-07
3.77371856969e-07
3.75561112469e-07
3.74337098058e-07
3.73434135854e-07
2.19526275381e-21
2.19526275381e-21
2.19526275381e-21
2.19526275381e-21
2.19526275381e-21
2.19526275381e-21
2.19526275381e-21
2.19526275381e-21
2.19526275381e-21
2.19526275381e-21
2.19526275381e-21
2.19526275381e-21
2.19526275381e-21
2.19526275381e-21
2.19526275381e-21
2.19526275381e-21
2.19526275381e-21
2.19526275392e-21
2.19526276027e-21
2.19526314513e-21
2.19528541152e-21
2.19659224404e-21
2.21969441475e-21
5.60149887279e-06
0.00581327067243
0.000138105794881
3.81455446016e-06
1.40652916856e-06
8.57515083828e-07
7.00167393742e-07
6.48663208791e-07
6.29176607845e-07
6.18836309663e-07
6.10868306097e-07
6.03321952081e-07
5.95879399917e-07
5.88469363134e-07
5.81087018778e-07
5.73679081163e-07
5.66221975866e-07
5.58707886528e-07
5.51143512186e-07
5.43457841705e-07
5.35655653331e-07
5.2778430537e-07
5.19797619709e-07
5.11721020301e-07
5.03564635971e-07
4.95740229185e-07
4.87515550082e-07
4.79270744752e-07
4.71061153069e-07
4.62935790378e-07
4.54910693085e-07
4.47096717707e-07
4.39501405964e-07
4.32141043511e-07
4.25443976849e-07
4.18759900268e-07
4.12478437413e-07
4.06636088952e-07
4.01293158366e-07
3.96475353214e-07
3.92193459919e-07
3.88486302289e-07
3.85361721117e-07
3.82830656299e-07
3.80933171632e-07
3.79653950049e-07
3.78728922261e-07
2.19526275377e-21
2.19526275377e-21
2.19526275377e-21
2.19526275377e-21
2.19526275377e-21
2.19526275377e-21
2.19526275377e-21
2.19526275377e-21
2.19526275377e-21
2.19526275377e-21
2.19526275377e-21
2.19526275377e-21
2.19526275377e-21
2.19526275377e-21
2.19526275377e-21
2.19526275377e-21
2.19526275378e-21
2.19526275402e-21
2.19526276856e-21
2.19526363108e-21
2.19531247145e-21
2.19812079258e-21
2.23813890986e-21
0.000361734949852
0.00311737686435
2.59274519487e-05
3.06791759725e-06
1.29166528959e-06
8.57747847498e-07
7.26640440491e-07
6.83052923762e-07
6.64656333713e-07
6.5393959615e-07
6.44594609972e-07
6.35604724923e-07
6.26695801016e-07
6.17849920977e-07
6.09046380261e-07
6.00256840548e-07
5.91463155304e-07
5.82666981963e-07
5.73829224206e-07
5.64927152978e-07
5.56001812336e-07
5.4743703116e-07
5.38403506079e-07
5.29311670692e-07
5.20176103378e-07
5.11053502878e-07
5.01927873166e-07
4.92890990889e-07
4.83939509091e-07
4.75085731544e-07
4.66798887552e-07
4.58337743238e-07
4.50124603291e-07
4.42244318316e-07
4.34732724014e-07
4.27606204398e-07
4.20925223098e-07
4.14746303326e-07
4.09460054834e-07
4.04343697403e-07
3.99822538295e-07
3.95886360286e-07
3.92619274342e-07
3.89976100848e-07
3.879708888e-07
3.86618655777e-07
3.85667972537e-07
2.19526275373e-21
2.19526275373e-21
2.19526275373e-21
2.19526275374e-21
2.19526275374e-21
2.19526275374e-21
2.19526275374e-21
2.19526275374e-21
2.19526275374e-21
2.19526275374e-21
2.19526275374e-21
2.19526275374e-21
2.19526275374e-21
2.19526275374e-21
2.19526275374e-21
2.19526275374e-21
2.19526275375e-21
2.19526275425e-21
2.19526278361e-21
2.19526449544e-21
2.19535975776e-21
2.20067795463e-21
2.26604459011e-21
0.00915131622743
0.00220138218131
1.29486649302e-05
2.55628396717e-06
1.21923838913e-06
8.71023914369e-07
7.63285437192e-07
7.24928826749e-07
7.06640999818e-07
6.94298013483e-07
6.83108621076e-07
6.72305440132e-07
6.61683098893e-07
6.5115872567e-07
6.40719777855e-07
6.30369899407e-07
6.2004748012e-07
6.10253829589e-07
6.00020965292e-07
5.89779736241e-07
5.79552280216e-07
5.69335830343e-07
5.59117102175e-07
5.48885598763e-07
5.38707609443e-07
5.28575102263e-07
5.18911870765e-07
5.08961778153e-07
4.99126085203e-07
4.89490542627e-07
4.80060881605e-07
4.70916263603e-07
4.62096364845e-07
4.54008809818e-07
4.45919276269e-07
4.38319235139e-07
4.31228292235e-07
4.24652609649e-07
4.18621508161e-07
4.13233935914e-07
4.08450158671e-07
4.04324643675e-07
4.01193870112e-07
3.98403043707e-07
3.96299163505e-07
3.94870720026e-07
3.93872933504e-07
2.19526275371e-21
2.19526275371e-21
2.19526275371e-21
2.19526275371e-21
2.19526275371e-21
2.19526275371e-21
2.19526275371e-21
2.19526275371e-21
2.19526275371e-21
2.19526275371e-21
2.19526275371e-21
2.19526275371e-21
2.19526275371e-21
2.19526275371e-21
2.19526275371e-21
2.19526275371e-21
2.19526275373e-21
2.1952627548e-21
2.19526281952e-21
2.19526665024e-21
2.19548909996e-21
2.20379813489e-21
3.2266956336e-09
0.022922956064
0.00153766684512
8.32450510755e-06
2.2175777518e-06
1.18158303273e-06
8.989811615e-07
8.09081397097e-07
7.73769115372e-07
7.54553284139e-07
7.40037929688e-07
7.26648094973e-07
7.13679716629e-07
7.00960707316e-07
6.88502210229e-07
6.76700437056e-07
6.64527596278e-07
6.52537636519e-07
6.40617307296e-07
6.28823513885e-07
6.17107074179e-07
6.05430842349e-07
5.93838268416e-07
5.82745880361e-07
5.71292682353e-07
5.59906655459e-07
5.48643576474e-07
5.37531434968e-07
5.26568386523e-07
5.15816192784e-07
5.05730831972e-07
4.95479324419e-07
4.85570913103e-07
4.76055307008e-07
4.66947471905e-07
4.58293878583e-07
4.50541330847e-07
4.42957197268e-07
4.3596930824e-07
4.29578132478e-07
4.23815465388e-07
4.18759688327e-07
4.14375780641e-07
4.10718473897e-07
4.07765876547e-07
4.0552404514e-07
4.0400458431e-07
4.02970029303e-07
2.19526275369e-21
2.19526275369e-21
2.19526275369e-21
2.19526275369e-21
2.19526275369e-21
2.19526275369e-21
2.19526275369e-21
2.19526275369e-21
2.19526275369e-21
2.19526275369e-21
2.19526275369e-21
2.19526275369e-21
2.19526275369e-21
2.19526275369e-21
2.19526275369e-21
2.19526275369e-21
2.19526275374e-21
2.19526275649e-21
2.19526291955e-21
2.1952722122e-21
2.19580577857e-21
2.2084376237e-21
1.08250639111e-08
0.0266204745889
0.000925908058064
5.9303528216e-06
1.96855081905e-06
1.16549355643e-06
9.39236769059e-07
8.63128701846e-07
8.29375989772e-07
8.08630286306e-07
7.9154866685e-07
7.75469883055e-07
7.60439146759e-07
7.45346697302e-07
7.30590476649e-07
7.16151928388e-07
7.01960715077e-07
6.88023068206e-07
6.74294839525e-07
6.60704584216e-07
6.47765909944e-07
6.34498660024e-07
6.21389545445e-07
6.08380578428e-07
5.95571005948e-07
5.82881941314e-07
5.7086209711e-07
5.58575946337e-07
5.46516415471e-07
5.3476152863e-07
5.23299519998e-07
5.12177855478e-07
5.01877999041e-07
4.91598445231e-07
4.81793507665e-07
4.72507055522e-07
4.63812426168e-07
4.55712543697e-07
4.48648166319e-07
4.41856019058e-07
4.35745598407e-07
4.30360439128e-07
4.25702706272e-07
4.21825696971e-07
4.18689826946e-07
4.16321013808e-07
4.14715363441e-07
4.1363373316e-07
2.19526275367e-21
2.19526275367e-21
2.19526275367e-21
2.19526275367e-21
2.19526275367e-21
2.19526275367e-21
2.19526275367e-21
2.19526275367e-21
2.19526275367e-21
2.19526275367e-21
2.19526275367e-21
2.19526275367e-21
2.19526275367e-21
2.19526275367e-21
2.19526275367e-21
2.19526275367e-21
2.19526275378e-21
2.19526276047e-21
2.19526315958e-21
2.19528601886e-21
2.19661196238e-21
2.22013818538e-21
5.17194424575e-06
0.0062706215318
0.000234858934905
4.51655478887e-06
1.79214241631e-06
1.17226274e-06
9.90579000637e-07
9.24770428679e-07
8.9210840043e-07
8.68977120083e-07
8.49368306251e-07
8.30180604183e-07
8.11768620644e-07
7.93899902397e-07
7.76576917842e-07
7.59651314743e-07
7.431750544e-07
7.27548864643e-07
7.11702445255e-07
6.96183372241e-07
6.80892131179e-07
6.65850405643e-07
6.51521223115e-07
6.36953002021e-07
6.22629763399e-07
6.08527054917e-07
5.94714302395e-07
5.81158348895e-07
5.68380354181e-07
5.55507499196e-07
5.42985275147e-07
5.3094236263e-07
5.19353537291e-07
5.08685013193e-07
4.98136814645e-07
4.88162228138e-07
4.78844670463e-07
4.70209187394e-07
4.62272587373e-07
4.55034459741e-07
4.48931482452e-07
4.43226161309e-07
4.38294407156e-07
4.34178724692e-07
4.30850483715e-07
4.28341234356e-07
4.26633479281e-07
4.25501409449e-07
2.19526275365e-21
2.19526275365e-21
2.19526275365e-21
2.19526275365e-21
2.19526275365e-21
2.19526275365e-21
2.19526275365e-21
2.19526275365e-21
2.19526275365e-21
2.19526275365e-21
2.19526275365e-21
2.19526275365e-21
2.19526275365e-21
2.19526275365e-21
2.19526275365e-21
2.19526275366e-21
2.19526275395e-21
2.19526277119e-21
2.19526377987e-21
2.19532017392e-21
2.19850559953e-21
2.24284074545e-21
0.00073845085235
0.00305903706668
2.96260159133e-05
3.60585953351e-06
1.67730974008e-06
1.19957180546e-06
1.05263100809e-06
9.93925853583e-07
9.610589181e-07
9.35604760403e-07
9.12165756699e-07
8.89721846047e-07
8.68044964505e-07
8.47201837735e-07
8.27490837957e-07
8.07839982162e-07
7.88772850376e-07
7.70170008704e-07
7.52035699524e-07
7.34811944434e-07
7.17438618211e-07
7.00458959917e-07
6.83778888409e-07
6.67463930411e-07
6.51999288708e-07
6.36338147625e-07
6.21066046403e-07
6.06130204296e-07
5.91643173133e-07
5.78056447176e-07
5.64468475297e-07
5.51367026728e-07
5.38817579306e-07
5.2686357719e-07
5.15963334178e-07
5.05280513433e-07
4.9531137016e-07
4.86053096101e-07
4.77567358965e-07
4.69874396911e-07
4.62982967582e-07
4.57343482972e-07
4.52095240652e-07
4.47731653886e-07
4.44203823241e-07
4.41525350884e-07
4.39703479957e-07
4.38512962462e-07
2.19526275364e-21
2.19526275364e-21
2.19526275364e-21
2.19526275364e-21
2.19526275364e-21
2.19526275364e-21
2.19526275364e-21
2.19526275364e-21
2.19526275364e-21
2.19526275364e-21
2.19526275364e-21
2.19526275364e-21
2.19526275364e-21
2.19526275364e-21
2.19526275364e-21
2.19526275365e-21
2.19526275434e-21
2.19526279386e-21
2.19526504448e-21
2.19538744083e-21
2.20197501468e-21
2.34199213563e-10
0.014175171834
0.00205778812218
1.33892774749e-05
3.01628810625e-06
1.62111966054e-06
1.24703900056e-06
1.12734020349e-06
1.0724542628e-06
1.03765861472e-06
1.00833965771e-06
9.80892235126e-07
9.54686333413e-07
9.3005713013e-07
9.05757751384e-07
8.82292830417e-07
8.59572084857e-07
8.37659815777e-07
8.16923263758e-07
7.96167552839e-07
7.7605712774e-07
7.5639760627e-07
7.37812223105e-07
7.19131120065e-07
7.00893407561e-07
6.83129708821e-07
6.6633271427e-07
6.49451670685e-07
6.33081972751e-07
6.17194397185e-07
6.01872865893e-07
5.8756460171e-07
5.73379056788e-07
5.59833831543e-07
5.46935575394e-07
5.34764845715e-07
5.23788812744e-07
5.13104491972e-07
5.03212259263e-07
4.9417153692e-07
4.85989964379e-07
4.78675796834e-07
4.72655230862e-07
4.6710768638e-07
4.62457405645e-07
4.58722479605e-07
4.55877355687e-07
4.53923894545e-07
4.52680015844e-07
2.19526275362e-21
2.19526275362e-21
2.19526275362e-21
2.19526275362e-21
2.19526275362e-21
2.19526275362e-21
2.19526275362e-21
2.19526275363e-21
2.19526275363e-21
2.19526275363e-21
2.19526275363e-21
2.19526275363e-21
2.19526275363e-21
2.19526275363e-21
2.19526275363e-21
2.19526275366e-21
2.19526275574e-21
2.19526287761e-21
2.19526980498e-21
2.19566268513e-21
2.2066440277e-21
7.00314436677e-09
0.0266815000486
0.00130042873698
8.1916569172e-06
2.62314857679e-06
1.59896015915e-06
1.31631460429e-06
1.21469876207e-06
1.1616254483e-06
1.12253438954e-06
1.0882309184e-06
1.05605209204e-06
1.02607926241e-06
9.96708065972e-07
9.68546461119e-07
9.42126111341e-07
9.16045275048e-07
8.90934785513e-07
8.66625730492e-07
8.43729114876e-07
8.20910385382e-07
7.98807182704e-07
7.77304826209e-07
7.57003619462e-07
7.36690497817e-07
7.16994016788e-07
6.97843349877e-07
6.79856759218e-07
6.61881378197e-07
6.4456675608e-07
6.27854930776e-07
6.12323106258e-07
5.9697743633e-07
5.82366065059e-07
5.68489116194e-07
5.55424871741e-07
5.43649755084e-07
5.3223873769e-07
5.21714730239e-07
5.1207104004e-07
5.03348601024e-07
4.95561383704e-07
4.89205890004e-07
4.83314218922e-07
4.78385937833e-07
4.74407523342e-07
4.71388865363e-07
4.6931094996e-07
4.67982127025e-07
2.19526275361e-21
2.19526275361e-21
2.19526275361e-21
2.19526275361e-21
2.19526275361e-21
2.19526275361e-21
2.19526275361e-21
2.19526275361e-21
2.19526275361e-21
2.19526275361e-21
2.19526275361e-21
2.19526275361e-21
2.19526275361e-21
2.19526275362e-21
2.19526275362e-21
2.19526275372e-21
2.1952627598e-21
2.19526311228e-21
2.19528281992e-21
2.19640452024e-21
2.21739066427e-21
1.2888906143e-06
0.00983056973623
0.000523974255216
5.72816908814e-06
2.36639060152e-06
1.61934122902e-06
1.40128916607e-06
1.31311866365e-06
1.25939886998e-06
1.21520084951e-06
1.17592486804e-06
1.13838986186e-06
1.10267592621e-06
1.06938494324e-06
1.03688947667e-06
1.00580851856e-06
9.76040674375e-07
9.48023242812e-07
9.2042862764e-07
8.93857333746e-07
8.68792195354e-07
8.43980304611e-07
8.19947000213e-07
7.96745168705e-07
7.7481896626e-07
7.53022040119e-07
7.3196370631e-07
7.1217500565e-07
6.92555471064e-07
6.73658934856e-07
6.55496843804e-07
6.38667926496e-07
6.22095752024e-07
6.06345711386e-07
5.91439417729e-07
5.77430383365e-07
5.64817109721e-07
5.52632411934e-07
5.41416132924e-07
5.31183773932e-07
5.2194271907e-07
5.13670524391e-07
5.06912792136e-07
5.00653864744e-07
4.95417361479e-07
4.91209990639e-07
4.87997344835e-07
4.85790633334e-07
4.84405543058e-07
2.1952627536e-21
2.1952627536e-21
2.1952627536e-21
2.1952627536e-21
2.1952627536e-21
2.1952627536e-21
2.1952627536e-21
2.1952627536e-21
2.1952627536e-21
2.1952627536e-21
2.1952627536e-21
2.19526275361e-21
2.19526275361e-21
2.19526275361e-21
2.19526275361e-21
2.19526275395e-21
2.19526277371e-21
2.19526391156e-21
2.19532665269e-21
2.19880139809e-21
2.2465293928e-21
0.000922900780323
0.00308388410343
3.78786781731e-05
4.3761495338e-06
2.2096114578e-06
1.66937445016e-06
1.50277906837e-06
1.42158284311e-06
1.36525047892e-06
1.31577215255e-06
1.26966831229e-06
1.22619300456e-06
1.1857050532e-06
1.14655655421e-06
1.10936674679e-06
1.0745336487e-06
1.04063732395e-06
1.00815859415e-06
9.77683113227e-07
9.47774873051e-07
9.18965001413e-07
8.91892248887e-07
8.65168493613e-07
8.39365323914e-07
8.15111456452e-07
7.91133888125e-07
7.68024839101e-07
7.46348408023e-07
7.24959036537e-07
7.04381634046e-07
6.84741074174e-07
6.66527331727e-07
6.48663049317e-07
6.31762768345e-07
6.15763095448e-07
6.01312946538e-07
5.87310449521e-07
5.74345140748e-07
5.62404392605e-07
5.51492540442e-07
5.41661695328e-07
5.33466464765e-07
5.25783499141e-07
5.19164552623e-07
5.13630262733e-07
5.09142405618e-07
5.05745843876e-07
5.03398113954e-07
5.01924060284e-07
2.19526275359e-21
2.19526275359e-21
2.19526275359e-21
2.19526275359e-21
2.1952627536e-21
2.1952627536e-21
2.1952627536e-21
2.1952627536e-21
2.1952627536e-21
2.1952627536e-21
2.1952627536e-21
2.1952627536e-21
2.1952627536e-21
2.1952627536e-21
2.19526275361e-21
2.19526275461e-21
2.1952628117e-21
2.19526611095e-21
2.19545275571e-21
2.20362791036e-21
1.93113681987e-09
0.0193069363241
0.00188280411138
1.3750853339e-05
3.59011806132e-06
2.14072515864e-06
1.75654529682e-06
1.62010213414e-06
1.54219975321e-06
1.47936743972e-06
1.42274434083e-06
1.36973918742e-06
1.32060878351e-06
1.27336431821e-06
1.22944219541e-06
1.1870643534e-06
1.14748498078e-06
1.10913964256e-06
1.07247266152e-06
1.03822999404e-06
1.00466556732e-06
9.72528681838e-07
9.42397239699e-07
9.12736940782e-07
8.84270131613e-07
8.57542804012e-07
8.31204213923e-07
8.05879090357e-07
7.82260679724e-07
7.58985280075e-07
7.36724377248e-07
7.15459261753e-07
6.95875385795e-07
6.7662110646e-07
6.58485298876e-07
6.41414204681e-07
6.25972098403e-07
6.11053402693e-07
5.97263279178e-07
5.84580903578e-07
5.7300361758e-07
5.63150477247e-07
5.53878443162e-07
5.45762890684e-07
5.38772193385e-07
5.32929118723e-07
5.28202115674e-07
5.24604087295e-07
5.2209549472e-07
5.2052826555e-07
2.19526275359e-21
2.19526275359e-21
2.19526275359e-21
2.19526275359e-21
2.19526275359e-21
2.19526275359e-21
2.19526275359e-21
2.19526275359e-21
2.19526275359e-21
2.19526275359e-21
2.19526275359e-21
2.19526275359e-21
2.19526275359e-21
2.19526275359e-21
2.19526275366e-21
2.19526275788e-21
2.19526299823e-21
2.1952762374e-21
2.19600800006e-21
2.21174448892e-21
1.38989269357e-08
0.025338103319
0.000993367949135
8.01910488053e-06
3.12108129035e-06
2.14934758236e-06
1.87424818536e-06
1.75537261947e-06
1.67290212501e-06
1.6022911435e-06
1.53804903484e-06
1.47715042041e-06
1.42082521703e-06
1.3670711842e-06
1.31631477271e-06
1.2690858724e-06
1.22362278142e-06
1.18122081636e-06
1.14010888528e-06
1.10176407223e-06
1.06438388566e-06
1.02869885137e-06
9.95273389848e-07
9.62549700245e-07
9.31178032255e-07
9.01883091844e-07
8.73086572522e-07
8.45512324535e-07
8.19797694443e-07
7.94595367813e-07
7.70547587848e-07
7.48318811549e-07
7.26517265711e-07
7.05948821684e-07
6.86533729169e-07
6.68909449391e-07
6.51842504851e-07
6.35976376803e-07
6.21333216776e-07
6.0849631857e-07
5.96261516793e-07
5.85238588484e-07
5.75442234353e-07
5.66870003658e-07
5.5948446049e-07
5.5328101282e-07
5.48864500273e-07
5.45037884027e-07
5.42361159816e-07
5.40693398071e-07
2.19526275358e-21
2.19526275358e-21
2.19526275358e-21
2.19526275358e-21
2.19526275358e-21
2.19526275358e-21
2.19526275358e-21
2.19526275358e-21
2.19526275358e-21
2.19526275358e-21
2.19526275358e-21
2.19526275358e-21
2.19526275358e-21
2.19526275359e-21
2.19526275388e-21
2.19526277042e-21
2.19526370869e-21
2.19531485578e-21
2.19811663663e-21
2.23927698969e-21
0.000205848369545
0.00366788945259
9.21019363739e-05
5.59803426581e-06
2.86980894025e-06
2.21693396884e-06
2.01410649799e-06
1.90293855926e-06
1.8129308533e-06
1.73365706167e-06
1.65925916763e-06
1.5907093712e-06
1.52574181549e-06
1.46560133864e-06
1.40831611897e-06
1.3551061819e-06
1.30404896162e-06
1.25656773826e-06
1.21075720225e-06
1.16801565438e-06
1.1266102894e-06
1.08710740299e-06
1.05028697868e-06
1.01431265687e-06
9.80009821827e-07
9.47948149189e-07
9.16632751917e-07
8.87411052001e-07
8.58843685512e-07
8.31623685696e-07
8.05687376236e-07
7.81771347698e-07
7.5847151691e-07
7.36467960105e-07
7.16444551086e-07
6.97012854405e-07
6.78885860553e-07
6.62037457197e-07
6.47177935838e-07
6.32944234588e-07
6.20024154663e-07
6.08399992739e-07
5.98040578456e-07
5.88988703804e-07
5.81815288301e-07
5.75291281867e-07
5.70005177718e-07
5.65959850228e-07
5.6310998279e-07
5.61336903275e-07
2.19526275357e-21
2.19526275357e-21
2.19526275357e-21
2.19526275357e-21
2.19526275357e-21
2.19526275357e-21
2.19526275357e-21
2.19526275357e-21
2.19526275357e-21
2.19526275357e-21
2.19526275357e-21
2.19526275357e-21
2.19526275358e-21
2.1952627536e-21
2.19526275469e-21
2.1952628163e-21
2.19526630732e-21
2.19546088958e-21
2.20395291725e-21
1.86274569072e-09
0.018698647612
0.00198314354871
1.72115702487e-05
4.43053673597e-06
2.77342621758e-06
2.3352782974e-06
2.17238424743e-06
2.05932904062e-06
1.96136336394e-06
1.87060029094e-06
1.78715704504e-06
1.70857939981e-06
1.63623163335e-06
1.56848090137e-06
1.50415353926e-06
1.44461259636e-06
1.3876782866e-06
1.3347915073e-06
1.28397766249e-06
1.23668584582e-06
1.19095305288e-06
1.14758794839e-06
1.10715219841e-06
1.06780723415e-06
1.03116316226e-06
9.95506258889e-07
9.6155258662e-07
9.29986435973e-07
8.99162328249e-07
8.69856437545e-07
8.42819502632e-07
8.16466195444e-07
7.91557486217e-07
7.68815555228e-07
7.46784937355e-07
7.26158949144e-07
7.06956750728e-07
6.89865401603e-07
6.73448823211e-07
6.58431645592e-07
6.44815466069e-07
6.33239051702e-07
6.22343428066e-07
6.12801504407e-07
6.04599173583e-07
5.97748868799e-07
5.92167136681e-07
5.87896393585e-07
5.84870708582e-07
5.82985076281e-07
2.19526275357e-21
2.19526275357e-21
2.19526275357e-21
2.19526275357e-21
2.19526275357e-21
2.19526275357e-21
2.19526275357e-21
2.19526275357e-21
2.19526275357e-21
2.19526275357e-21
2.19526275357e-21
2.19526275357e-21
2.19526275357e-21
2.19526275368e-21
2.19526275957e-21
2.195263089e-21
2.19528088111e-21
2.19624542768e-21
2.21525390956e-21
1.79229020313e-08