/*--------------------------------*- C++ -*----------------------------------*\
| =========                 |                                                 |
| \\      /  F ield         | foam-extend: Open Source CFD                    |
|  \\    /   O peration     | Version:     4.1                                |
|   \\  /    A nd           | Web:         http://www.foam-extend.org         |
|    \\/     M anipulation  |                                                 |
\*---------------------------------------------------------------------------*/
FoamFile
{
    version     2.0;
    format      ascii;
    class       volScalarField;
    location    "0.0005";
    object      NOPlus;
}
// * * * * * * * * * * * * * * * * * * * * * * * * * * * * * * * * * * * * * //

dimensions      [0 0 0 0 0 0 0];

internalField   nonuniform List<scalar> 
8400
(
1.21417155727e-66
1.21417155727e-66
1.21417155728e-66
1.21417155728e-66
1.21417155729e-66
1.21417155729e-66
1.2141715573e-66
1.2141715573e-66
1.2141715573e-66
1.21417155731e-66
1.21417155731e-66
1.21417155732e-66
1.21417155732e-66
1.21417155732e-66
1.21417155733e-66
1.21417155733e-66
1.21417155734e-66
1.21417155734e-66
1.21417155734e-66
1.21417155737e-66
1.21417155851e-66
1.21417162708e-66
1.21417563883e-66
1.21440838672e-66
1.22224084071e-66
6.05045189731e-27
1.52472873707e-08
0.000460218744082
3.17264072083e-05
1.31339020482e-05
8.08808323547e-06
6.4125462104e-06
5.84270139958e-06
5.64418231069e-06
5.56669153201e-06
5.52775574684e-06
5.49741980924e-06
5.46978850253e-06
5.44319296371e-06
5.41694758962e-06
5.39368428921e-06
5.36723700038e-06
5.34023719008e-06
5.31265554541e-06
5.28408508928e-06
5.25435446845e-06
5.22340029094e-06
5.19090998172e-06
5.15691721095e-06
5.12124826157e-06
5.08418951645e-06
5.0482959173e-06
5.00821461502e-06
4.96687876458e-06
4.92466267258e-06
4.88171529298e-06
4.83833306011e-06
4.79495163381e-06
4.75214864469e-06
4.71035982742e-06
4.66992871954e-06
4.63429888664e-06
4.59845961568e-06
4.56582992865e-06
4.53699307819e-06
4.51218619314e-06
4.49196559351e-06
4.47645031631e-06
4.46588824185e-06
4.45518025895e-06
1.21417155603e-66
1.21417155604e-66
1.21417155604e-66
1.21417155604e-66
1.21417155604e-66
1.21417155604e-66
1.21417155604e-66
1.21417155605e-66
1.21417155605e-66
1.21417155605e-66
1.21417155605e-66
1.21417155605e-66
1.21417155605e-66
1.21417155606e-66
1.21417155606e-66
1.21417155606e-66
1.21417155606e-66
1.21417155606e-66
1.21417155607e-66
1.21417155618e-66
1.21417156293e-66
1.21417196754e-66
1.2141950435e-66
1.21553806304e-66
1.23841843952e-66
1.42813875122e-18
5.11136737853e-05
0.000142391326487
2.02379045617e-05
1.00981414351e-05
6.95090185034e-06
5.91997570663e-06
5.57484016335e-06
5.46194315668e-06
5.4242434956e-06
5.39822454383e-06
5.37752743342e-06
5.35655883677e-06
5.33469267245e-06
5.31195202408e-06
5.28814209747e-06
5.26310807205e-06
5.23680658982e-06
5.20907384282e-06
5.18005889198e-06
5.14950194143e-06
5.11742025651e-06
5.08367897682e-06
5.04826037848e-06
5.01113825704e-06
4.97272985123e-06
4.93283437017e-06
4.89165090473e-06
4.84956010609e-06
4.80670888152e-06
4.76341820379e-06
4.72020288056e-06
4.67741328963e-06
4.635498499e-06
4.59717621249e-06
4.55815749733e-06
4.52135310354e-06
4.48719795587e-06
4.45645787389e-06
4.42926066036e-06
4.40604935009e-06
4.38705910657e-06
4.37253769178e-06
4.36270264674e-06
4.35374993834e-06
1.21417155551e-66
1.21417155551e-66
1.21417155551e-66
1.21417155551e-66
1.21417155551e-66
1.21417155551e-66
1.21417155551e-66
1.21417155551e-66
1.21417155552e-66
1.21417155552e-66
1.21417155552e-66
1.21417155552e-66
1.21417155552e-66
1.21417155552e-66
1.21417155552e-66
1.21417155552e-66
1.21417155552e-66
1.21417155553e-66
1.21417155554e-66
1.21417155606e-66
1.2141715869e-66
1.21417338545e-66
1.21427332047e-66
1.21983139053e-66
8.91925922216e-29
4.18849256212e-10
0.000348400495542
3.923611609e-05
1.42870632615e-05
8.25800981894e-06
6.30249361193e-06
5.6537227016e-06
5.44819203167e-06
5.38378321077e-06
5.35722929418e-06
5.33996828725e-06
5.32304022961e-06
5.30529588271e-06
5.28624161945e-06
5.26575495589e-06
5.24378870389e-06
5.22019945085e-06
5.19506052747e-06
5.16830041851e-06
5.13976732058e-06
5.10955333943e-06
5.07747540598e-06
5.04361148841e-06
5.00800210981e-06
4.97091963191e-06
4.93224439537e-06
4.89213832709e-06
4.85114023243e-06
4.80922158198e-06
4.76670337608e-06
4.72413345597e-06
4.68174827965e-06
4.64000520502e-06
4.59919101722e-06
4.55971188851e-06
4.52234520557e-06
4.48717803677e-06
4.45723297173e-06
4.42800601355e-06
4.40231896607e-06
4.38037883563e-06
4.36256803877e-06
4.34906927036e-06
4.33995641252e-06
4.33209251751e-06
1.21417155522e-66
1.21417155522e-66
1.21417155522e-66
1.21417155522e-66
1.21417155522e-66
1.21417155522e-66
1.21417155522e-66
1.21417155522e-66
1.21417155522e-66
1.21417155522e-66
1.21417155523e-66
1.21417155523e-66
1.21417155523e-66
1.21417155523e-66
1.21417155523e-66
1.21417155523e-66
1.21417155523e-66
1.21417155523e-66
1.21417155527e-66
1.21417155782e-66
1.21417170968e-66
1.21418043022e-66
1.21468817886e-66
1.22630638861e-66
1.718795687e-26
2.58001816007e-07
0.000470281361396
2.48745983606e-05
1.1308314131e-05
7.30827991075e-06
6.00903895936e-06
5.57228433376e-06
5.43653016553e-06
5.39176762171e-06
5.36712342806e-06
5.3485843745e-06
5.32988676338e-06
5.31046177283e-06
5.28988578932e-06
5.26796190452e-06
5.24463402138e-06
5.2197120346e-06
5.19323512239e-06
5.16515934634e-06
5.1353045121e-06
5.10376319643e-06
5.07037661562e-06
5.03523107275e-06
4.99842867214e-06
4.9601908231e-06
4.92046759595e-06
4.87942283809e-06
4.83771176408e-06
4.79523962236e-06
4.75232931415e-06
4.70966114054e-06
4.6673245888e-06
4.62573339621e-06
4.58777152751e-06
4.54893989455e-06
4.51211538797e-06
4.47772263262e-06
4.44626319087e-06
4.41792466321e-06
4.39306291161e-06
4.37189357808e-06
4.35475256783e-06
4.34178806571e-06
4.33304430794e-06
4.32576334104e-06
1.21417155504e-66
1.21417155504e-66
1.21417155504e-66
1.21417155504e-66
1.21417155504e-66
1.21417155504e-66
1.21417155504e-66
1.21417155504e-66
1.21417155504e-66
1.21417155504e-66
1.21417155504e-66
1.21417155504e-66
1.21417155504e-66
1.21417155505e-66
1.21417155505e-66
1.21417155505e-66
1.21417155505e-66
1.21417155505e-66
1.21417155521e-66
1.21417156445e-66
1.2141721169e-66
1.21420371017e-66
1.21605178758e-66
1.24492131723e-66
3.91498841087e-15
0.000100763652829
9.00082119588e-05
1.87648972869e-05
9.68359358856e-06
6.8259970816e-06
5.89298630584e-06
5.58363484924e-06
5.48648182863e-06
5.45167686408e-06
5.42592807775e-06
5.40431092957e-06
5.3821507419e-06
5.35906210932e-06
5.3348198241e-06
5.30949682413e-06
5.28287309089e-06
5.25476171394e-06
5.2251207378e-06
5.19387884188e-06
5.16118619398e-06
5.12680599483e-06
5.09085041941e-06
5.05320762771e-06
5.01395657587e-06
4.97343456315e-06
4.93165550004e-06
4.88881593047e-06
4.84529579635e-06
4.80128744924e-06
4.75968174142e-06
4.71572234007e-06
4.67229952875e-06
4.63016794879e-06
4.58940078298e-06
4.5503742013e-06
4.51342844074e-06
4.478919409e-06
4.44756934725e-06
4.41940239018e-06
4.3947568067e-06
4.37382847102e-06
4.35681481979e-06
4.34397205403e-06
4.3353416241e-06
4.32831607589e-06
1.21417155492e-66
1.21417155492e-66
1.21417155492e-66
1.21417155492e-66
1.21417155492e-66
1.21417155492e-66
1.21417155492e-66
1.21417155492e-66
1.21417155492e-66
1.21417155492e-66
1.21417155492e-66
1.21417155492e-66
1.21417155492e-66
1.21417155492e-66
1.21417155492e-66
1.21417155493e-66
1.21417155493e-66
1.21417155493e-66
1.21417155534e-66
1.2141715793e-66
1.21417299034e-66
1.21425225641e-66
1.21874090155e-66
1.27463703527e-66
1.37545182023e-11
0.000284308567076
4.54115943291e-05
1.54327742409e-05
8.75601937949e-06
6.61237145669e-06
5.89968009527e-06
5.66611621813e-06
5.58743837443e-06
5.55198302323e-06
5.5219363916e-06
5.49556100991e-06
5.46865094392e-06
5.44093181705e-06
5.41230216779e-06
5.38246675936e-06
5.35137917145e-06
5.31892386371e-06
5.28525446691e-06
5.25003269864e-06
5.21326831084e-06
5.17502169867e-06
5.13539258805e-06
5.09435357771e-06
5.05190016263e-06
5.00812344544e-06
4.96586164958e-06
4.92032844057e-06
4.87437278862e-06
4.82804816805e-06
4.78169992462e-06
4.73600622747e-06
4.69108122046e-06
4.64735370269e-06
4.60540508572e-06
4.565429333e-06
4.52766212525e-06
4.49503569899e-06
4.46301292588e-06
4.43451098449e-06
4.40956420847e-06
4.38843332136e-06
4.37129966502e-06
4.35829572809e-06
4.34952350547e-06
4.34254259439e-06
1.21417155483e-66
1.21417155483e-66
1.21417155483e-66
1.21417155483e-66
1.21417155484e-66
1.21417155484e-66
1.21417155484e-66
1.21417155484e-66
1.21417155484e-66
1.21417155484e-66
1.21417155484e-66
1.21417155484e-66
1.21417155484e-66
1.21417155484e-66
1.21417155484e-66
1.21417155484e-66
1.21417155484e-66
1.21417155486e-66
1.21417155582e-66
1.21417161449e-66
1.21417510517e-66
1.21437955255e-66
1.22189376575e-66
4.93144454419e-27
1.01165754895e-08
0.000448025577797
3.26395794109e-05
1.33525776975e-05
8.21781863251e-06
6.54520731812e-06
5.98679350555e-06
5.79433787687e-06
5.72505515775e-06
5.68618257786e-06
5.65293384401e-06
5.61760320608e-06
5.58483781263e-06
5.55149530955e-06
5.51723586256e-06
5.48197934369e-06
5.44558333574e-06
5.40821177136e-06
5.3694768057e-06
5.3293619267e-06
5.28797104626e-06
5.24777822915e-06
5.20378853501e-06
5.15845779985e-06
5.1118425991e-06
5.06446605913e-06
5.01614539138e-06
4.96714653948e-06
4.91804543797e-06
4.86894300836e-06
4.82005497955e-06
4.77165129053e-06
4.72452189489e-06
4.68145862172e-06
4.63749236021e-06
4.59596824685e-06
4.55687419762e-06
4.52060581691e-06
4.48771923897e-06
4.45837251689e-06
4.43281047506e-06
4.41121498013e-06
4.3936838009e-06
4.38037534709e-06
4.37140634974e-06
4.36440420833e-06
1.21417155477e-66
1.21417155477e-66
1.21417155477e-66
1.21417155477e-66
1.21417155477e-66
1.21417155477e-66
1.21417155477e-66
1.21417155477e-66
1.21417155477e-66
1.21417155477e-66
1.21417155477e-66
1.21417155478e-66
1.21417155478e-66
1.21417155478e-66
1.21417155478e-66
1.21417155478e-66
1.21417155478e-66
1.21417155482e-66
1.21417155732e-66
1.21417170657e-66
1.21418028641e-66
1.21467927673e-66
1.22626941434e-66
1.67045420148e-26
2.24542551154e-07
0.000479107168332
2.58903071286e-05
1.19764746689e-05
7.90322212767e-06
6.57609849227e-06
6.12084590414e-06
5.96317809592e-06
5.89559507705e-06
5.85076666018e-06
5.80998278744e-06
5.76996617286e-06
5.73016591593e-06
5.69000247401e-06
5.64925270815e-06
5.60773293004e-06
5.56527853155e-06
5.52201647021e-06
5.47758689742e-06
5.43192841323e-06
5.38531299135e-06
5.33740293774e-06
5.28828931522e-06
5.23829309211e-06
5.18738958436e-06
5.13558360897e-06
5.08308782492e-06
5.0304022641e-06
4.98013476013e-06
4.92756752763e-06
4.87553347029e-06
4.82430695821e-06
4.77459057197e-06
4.72651409285e-06
4.68042729266e-06
4.63669843526e-06
4.59589291378e-06
4.5582233632e-06
4.52655414174e-06
4.49592230303e-06
4.46943411483e-06
4.44704734745e-06
4.42888472968e-06
4.41515628815e-06
4.40585988158e-06
4.39874201841e-06
1.21417155472e-66
1.21417155472e-66
1.21417155472e-66
1.21417155472e-66
1.21417155472e-66
1.21417155473e-66
1.21417155473e-66
1.21417155473e-66
1.21417155473e-66
1.21417155473e-66
1.21417155473e-66
1.21417155473e-66
1.21417155473e-66
1.21417155473e-66
1.21417155473e-66
1.21417155473e-66
1.21417155473e-66
1.21417155483e-66
1.21417156071e-66
1.21417191708e-66
1.2141925354e-66
1.21540264121e-66
1.23679487829e-66
9.644084738e-19
3.4677183019e-05
0.000196123490587
2.16317833667e-05
1.1005025746e-05
7.73728050286e-06
6.6643505068e-06
6.29703707247e-06
6.16110936853e-06
6.09246221466e-06
6.04111303986e-06
5.99272867501e-06
5.94485528905e-06
5.89706503247e-06
5.84927326743e-06
5.80105000972e-06
5.75238804677e-06
5.70321983319e-06
5.6534339284e-06
5.60265281287e-06
5.55088115141e-06
5.49834833798e-06
5.44472539466e-06
5.39022226888e-06
5.33488188936e-06
5.2814943361e-06
5.22496716937e-06
5.16796674005e-06
5.11085850111e-06
5.05398628689e-06
4.99747035563e-06
4.94204228307e-06
4.88781107209e-06
4.83492791894e-06
4.78654851572e-06
4.73794874013e-06
4.69197642763e-06
4.64902946572e-06
4.60954595139e-06
4.57378743725e-06
4.54192012602e-06
4.51421177779e-06
4.49080574825e-06
4.4718364764e-06
4.45753938276e-06
4.44788191599e-06
4.4406387212e-06
1.21417155469e-66
1.21417155469e-66
1.21417155469e-66
1.21417155469e-66
1.21417155469e-66
1.21417155469e-66
1.21417155469e-66
1.21417155469e-66
1.21417155469e-66
1.21417155469e-66
1.21417155469e-66
1.21417155469e-66
1.21417155469e-66
1.21417155469e-66
1.21417155469e-66
1.21417155469e-66
1.21417155469e-66
1.21417155492e-66
1.21417156838e-66
1.21417236706e-66
1.21421759246e-66
1.21681805249e-66
1.25387418297e-66
2.26426320624e-14
0.000155297406221
7.17628059648e-05
1.87048367794e-05
1.03373442342e-05
7.70166941893e-06
6.81123243076e-06
6.50573268922e-06
6.38201866568e-06
6.31328465785e-06
6.2546596344e-06
6.19832390708e-06
6.14224297831e-06
6.08632691851e-06
6.03043455217e-06
5.97437157615e-06
5.91791667081e-06
5.86117453234e-06
5.80388410681e-06
5.74588848533e-06
5.68740825958e-06
5.63103040154e-06
5.57122973349e-06
5.5106922881e-06
5.44948360418e-06
5.38796649876e-06
5.32601314727e-06
5.26421714365e-06
5.2025948329e-06
5.14121877557e-06
5.08339197437e-06
5.02394892541e-06
4.96587309276e-06
4.90977182599e-06
4.8558911869e-06
4.80446517448e-06
4.75599835207e-06
4.71092797136e-06
4.67211595795e-06
4.63443166388e-06
4.60090475879e-06
4.57169144519e-06
4.54727917794e-06
4.52752198354e-06
4.51252983608e-06
4.50239747217e-06
4.49498607387e-06
1.21417155466e-66
1.21417155466e-66
1.21417155466e-66
1.21417155466e-66
1.21417155466e-66
1.21417155466e-66
1.21417155466e-66
1.21417155466e-66
1.21417155466e-66
1.21417155466e-66
1.21417155466e-66
1.21417155466e-66
1.21417155466e-66
1.21417155466e-66
1.21417155466e-66
1.21417155466e-66
1.21417155467e-66
1.21417155513e-66
1.21417158232e-66
1.21417316745e-66
1.21426137882e-66
1.21918594325e-66
1.27971439232e-66
2.89018819622e-11
0.000293594098365
4.69115997494e-05
1.65233310331e-05
9.88689992914e-06
7.74537162025e-06
7.01807427858e-06
6.75622641774e-06
6.63808175283e-06
6.56180670247e-06
6.49345832395e-06
6.42733905732e-06
6.36201042711e-06
6.29693418326e-06
6.23202711379e-06
6.16730831709e-06
6.10236427746e-06
6.04035114639e-06
5.97515691641e-06
5.90951841279e-06
5.84355920275e-06
5.7772483741e-06
5.7104886152e-06
5.64320748239e-06
5.57586623864e-06
5.50844261845e-06
5.44364176614e-06
5.37644101394e-06
5.30953051425e-06
5.24349995388e-06
5.17840211037e-06
5.11481581658e-06
5.05304881599e-06
4.99603164862e-06
4.93860701748e-06
4.88428326582e-06
4.83325471583e-06
4.78568090821e-06
4.74184800386e-06
4.70240145118e-06
4.66729147262e-06
4.63683243978e-06
4.61371411719e-06
4.59297195503e-06
4.57731878767e-06
4.56669341405e-06
4.55901167149e-06
1.21417155463e-66
1.21417155463e-66
1.21417155463e-66
1.21417155463e-66
1.21417155463e-66
1.21417155463e-66
1.21417155463e-66
1.21417155463e-66
1.21417155463e-66
1.21417155463e-66
1.21417155463e-66
1.21417155463e-66
1.21417155463e-66
1.21417155463e-66
1.21417155463e-66
1.21417155464e-66
1.21417155465e-66
1.21417155564e-66
1.21417161557e-66
1.21417516276e-66
1.21438114761e-66
1.22207517979e-66
4.74359270454e-27
8.60721214222e-09
0.000434571931726
3.55901426377e-05
1.49633182917e-05
9.62266499281e-06
7.87461785787e-06
7.27527950384e-06
7.04303471257e-06
6.92378285025e-06
6.83699120782e-06
6.75742325521e-06
6.68004473816e-06
6.60368791624e-06
6.52839673045e-06
6.45663496955e-06
6.38207723051e-06
6.30814985199e-06
6.23415746091e-06
6.1604452757e-06
6.08670470837e-06
6.01270385477e-06
5.93870079198e-06
5.86738209035e-06
5.79318284442e-06
5.71886509075e-06
5.6447910273e-06
5.57116350439e-06
5.49802172047e-06
5.42579102832e-06
5.35753943607e-06
5.28760512422e-06
5.2194956107e-06
5.15359747016e-06
5.09006077997e-06
5.02926202316e-06
4.97446392983e-06
4.9204431319e-06
4.87033953151e-06
4.82428580118e-06
4.78256539352e-06
4.74572374529e-06
4.71372503851e-06
4.68686507634e-06
4.66515161394e-06
4.64866358215e-06
4.63745888532e-06
4.62953171017e-06
1.21417155461e-66
1.21417155461e-66
1.21417155461e-66
1.21417155461e-66
1.21417155461e-66
1.21417155461e-66
1.21417155461e-66
1.21417155461e-66
1.21417155461e-66
1.21417155461e-66
1.21417155461e-66
1.21417155461e-66
1.21417155461e-66
1.21417155461e-66
1.21417155461e-66
1.21417155461e-66
1.21417155466e-66
1.21417155721e-66
1.2141717082e-66
1.21418031304e-66
1.21467438689e-66
1.22637127153e-66
1.57212225886e-26
1.69260956259e-07
0.00049246529428
2.86578089693e-05
1.37454288325e-05
9.47593193369e-06
8.07239843237e-06
7.57451013191e-06
7.36220457625e-06
7.2390465254e-06
7.14007338464e-06
7.04689922729e-06
6.95930308832e-06
6.8707352286e-06
6.78360220924e-06
6.69777083602e-06
6.61278765057e-06
6.52869306291e-06
6.44523345616e-06
6.36197489202e-06
6.28209550755e-06
6.19954839265e-06
6.11735077077e-06
6.03513138835e-06
5.95349529397e-06
5.87196051815e-06
5.7941006536e-06
5.71384923703e-06
5.6344352155e-06
5.5564000706e-06
5.47968443443e-06
5.40467005369e-06
5.33472094702e-06
5.26437095318e-06
5.19676199865e-06
5.13226050455e-06
5.07144648876e-06
5.01441167449e-06
4.96430197319e-06
4.91584773929e-06
4.87207203695e-06
4.8332200639e-06
4.79953990139e-06
4.77135228891e-06
4.7485467721e-06
4.7312636916e-06
4.71951433765e-06
4.71134285801e-06
1.21417155459e-66
1.21417155459e-66
1.21417155459e-66
1.21417155459e-66
1.21417155459e-66
1.21417155459e-66
1.21417155459e-66
1.21417155459e-66
1.21417155459e-66
1.2141715546e-66
1.2141715546e-66
1.2141715546e-66
1.2141715546e-66
1.2141715546e-66
1.2141715546e-66
1.2141715546e-66
1.2141715547e-66
1.21417156089e-66
1.21417193047e-66
1.21419309778e-66
1.21542090007e-66
1.23720580273e-66
8.89228699873e-19
2.85293089116e-05
0.000267063043914
2.39881798434e-05
1.28292924431e-05
9.4536877414e-06
8.32853994282e-06
7.9094103345e-06
7.71330949365e-06
7.58175722186e-06
7.47178027521e-06
7.3637548479e-06
7.25925639615e-06
7.15702308339e-06
7.05709983214e-06
6.95866241761e-06
6.86201271683e-06
6.76958656875e-06
6.67519085042e-06
6.58204146513e-06
6.48950510273e-06
6.39770686147e-06
6.30954046905e-06
6.21906341182e-06
6.12932644361e-06
6.04020765324e-06
5.95216496146e-06
5.86499647932e-06
5.78212331815e-06
5.69789904921e-06
5.6152594336e-06
5.53506651248e-06
5.45723871814e-06
5.38502192372e-06
5.31304125901e-06
5.24452891523e-06
5.18011905568e-06
5.11998045895e-06
5.06432612445e-06
5.0132708701e-06
4.97004095682e-06
4.92931218194e-06
4.8940248865e-06
4.86442440758e-06
4.8404823331e-06
4.8223534201e-06
4.80999624669e-06
4.80156126095e-06
1.21417155458e-66
1.21417155458e-66
1.21417155458e-66
1.21417155458e-66
1.21417155458e-66
1.21417155458e-66
1.21417155458e-66
1.21417155458e-66
1.21417155458e-66
1.21417155458e-66
1.21417155458e-66
1.21417155458e-66
1.21417155458e-66
1.21417155458e-66
1.21417155458e-66
1.21417155459e-66
1.21417155486e-66
1.21417157082e-66
1.21417250484e-66
1.21422472482e-66
1.2171743775e-66
1.2582280068e-66
1.62327907279e-14
0.000163013096674
7.75330664155e-05
2.06351444005e-05
1.21879817087e-05
9.54156112847e-06
8.63758324624e-06
8.27749489648e-06
8.08917729268e-06
7.95002308397e-06
7.8225960989e-06
7.69982152074e-06
7.58018711534e-06
7.4640039692e-06
7.3531951183e-06
7.24168805497e-06
7.1324054333e-06
7.02484186925e-06
6.91905726185e-06
6.81768231881e-06
6.714393378e-06
6.61259551046e-06
6.51181451435e-06
6.41238329184e-06
6.31722303406e-06
6.21993815912e-06
6.12421059034e-06
6.02973693709e-06
5.93721032525e-06
5.84962603461e-06
5.76121924101e-06
5.67522389077e-06
5.59213105224e-06
5.51229211913e-06
5.43888311753e-06
5.36633629583e-06
5.29810653955e-06
5.23427787332e-06
5.17540946666e-06
5.12174749708e-06
5.07345156938e-06
5.0336830214e-06
4.99658009075e-06
4.96552240512e-06
4.94040781861e-06
4.92131047929e-06
4.90827164497e-06
4.89951834317e-06
1.21417155457e-66
1.21417155457e-66
1.21417155457e-66
1.21417155457e-66
1.21417155457e-66
1.21417155457e-66
1.21417155457e-66
1.21417155457e-66
1.21417155457e-66
1.21417155457e-66
1.21417155457e-66
1.21417155457e-66
1.21417155457e-66
1.21417155457e-66
1.21417155457e-66
1.21417155458e-66
1.21417155522e-66
1.21417159181e-66
1.21417367585e-66
1.2142870129e-66
1.22038699992e-66
3.46004365554e-28
3.99209878809e-10
0.0003263171046
4.76696982975e-05
1.82483667025e-05
1.18213771931e-05
9.73201000831e-06
9.00613619462e-06
8.68548891385e-06
8.49602460289e-06
8.34127324162e-06
8.19635624329e-06
8.05704678645e-06
7.92485281547e-06
7.79307432388e-06
7.66446344219e-06
7.53874997307e-06
7.41616752201e-06
7.29906246617e-06
7.18067266139e-06
7.06476635189e-06
6.95039075623e-06
6.84118387947e-06
6.73025902946e-06
6.62094784558e-06
6.51342036614e-06
6.41078488692e-06
6.30675557405e-06
6.20493792068e-06
6.10505321956e-06
6.00781614125e-06
5.9161640764e-06
5.82444541295e-06
5.73602387534e-06
5.65105082998e-06
5.57017007673e-06
5.49663106571e-06
5.42445759998e-06
5.35715033143e-06
5.29521263337e-06
5.23877052851e-06
5.18798339316e-06
5.14602704679e-06
5.10712318315e-06
5.07442716293e-06
5.04806250749e-06
5.02798243638e-06
5.01420532377e-06
5.0051589264e-06
1.21417155455e-66
1.21417155455e-66
1.21417155455e-66
1.21417155455e-66
1.21417155455e-66
1.21417155455e-66
1.21417155455e-66
1.21417155456e-66
1.21417155456e-66
1.21417155456e-66
1.21417155456e-66
1.21417155456e-66
1.21417155456e-66
1.21417155456e-66
1.21417155456e-66
1.21417155459e-66
1.21417155651e-66
1.21417166936e-66
1.214178084e-66
1.21454188467e-66
1.22471043059e-66
1.02204873625e-26
4.3663267992e-08
0.000477749709026
3.50076935751e-05
1.65227852968e-05
1.16196949786e-05
1.00285847119e-05
9.43007006393e-06
9.13652732854e-06
8.93439998645e-06
8.75987742845e-06
8.59516965947e-06
8.44011141348e-06
8.28650678396e-06
8.13750947756e-06
7.99628749278e-06
7.8555287477e-06
7.7185274315e-06
7.58446503645e-06
7.4568325915e-06
7.32822104019e-06
7.20234218839e-06
7.07853036869e-06
6.9604950918e-06
6.84097623805e-06
6.72396316977e-06
6.60895077709e-06
6.49981307041e-06
6.38963692065e-06
6.28238969901e-06
6.17794856562e-06
6.08003055047e-06
5.98228167077e-06
5.88827926537e-06
5.79819171674e-06
5.71260867731e-06
5.63481478466e-06
5.55877467727e-06
5.48810153872e-06
5.42286591645e-06
5.36347890934e-06
5.31015977703e-06
5.26638029846e-06
5.22559466215e-06
5.19135655229e-06
5.16365048776e-06
5.14255220072e-06
5.12804805359e-06
5.1185568382e-06
1.21417155454e-66
1.21417155454e-66
1.21417155454e-66
1.21417155454e-66
1.21417155454e-66
1.21417155454e-66
1.21417155454e-66
1.21417155454e-66
1.21417155455e-66
1.21417155455e-66
1.21417155455e-66
1.21417155455e-66
1.21417155455e-66
1.21417155455e-66
1.21417155455e-66
1.21417155464e-66
1.21417156028e-66
1.21417188667e-66
1.21419013562e-66
1.21522881201e-66
1.23466164254e-66
2.19667084571e-19
8.92408073835e-06
0.000409663629452
2.77823672868e-05
1.53048588383e-05
1.16230646231e-05
1.03962676755e-05
9.89765304362e-06
9.61720763327e-06
9.39906372724e-06
9.20611969125e-06
9.01987532662e-06
8.84053205344e-06
8.6713655613e-06
8.50413123186e-06
8.34220002321e-06
8.18526086638e-06
8.03587043156e-06
7.88690439172e-06
7.74197431118e-06
7.60388854752e-06
7.46556293601e-06
7.33010857293e-06
7.19778015756e-06
7.07140499908e-06
6.94426404165e-06
6.82014478449e-06
6.70219965554e-06
6.58396312182e-06
6.4688769517e-06
6.35702698941e-06
6.25239872168e-06
6.14822998084e-06
6.04830146859e-06
5.95293072909e-06
5.86250184431e-06
5.78035741921e-06
5.70029533668e-06
5.62600471969e-06
5.55771209372e-06
5.49559990572e-06
5.43965745509e-06
5.39376592336e-06
5.35097962362e-06
5.31507184811e-06
5.28611178952e-06
5.26400919232e-06
5.24880719766e-06
5.23903103436e-06
1.21417155453e-66
1.21417155453e-66
1.21417155454e-66
1.21417155454e-66
1.21417155454e-66
1.21417155454e-66
1.21417155454e-66
1.21417155454e-66
1.21417155454e-66
1.21417155454e-66
1.21417155454e-66
1.21417155454e-66
1.21417155454e-66
1.21417155454e-66
1.21417155454e-66
1.21417155486e-66
1.21417157315e-66
1.21417262679e-66
1.21423072406e-66
1.2174482822e-66
1.2616436347e-66
1.30830404728e-14
0.000161877682879
8.96136387572e-05
2.321898197e-05
1.44900168941e-05
1.17673291984e-05
1.08348554458e-05
1.04010399308e-05
1.01241916924e-05
9.88906956393e-06
9.66950204848e-06
9.46034416401e-06
9.26299877365e-06
9.06954786366e-06
8.88334274647e-06
8.70667690502e-06
8.53257042781e-06
8.36348217581e-06
8.2028964652e-06
8.043372558e-06
7.88779068586e-06
7.73978444491e-06
7.59201382851e-06
7.44775243657e-06
7.3106596272e-06
7.17352013455e-06
7.03974915644e-06
6.91293711357e-06
6.78622496438e-06
6.66302998236e-06
6.5440539457e-06
6.43260259361e-06
6.32208144948e-06
6.21640257913e-06
6.11538769051e-06
6.02333310015e-06
5.93323896934e-06
5.84912937403e-06
5.77110819224e-06
5.69931274383e-06
5.63418282198e-06
5.5794989131e-06
5.52794938981e-06
5.48339093402e-06
5.44589084405e-06
5.4154744755e-06
5.39235715465e-06
5.37638402538e-06
5.36617100147e-06
1.21417155453e-66
1.21417155453e-66
1.21417155453e-66
1.21417155453e-66
1.21417155453e-66
1.21417155453e-66
1.21417155453e-66
1.21417155453e-66
1.21417155453e-66
1.21417155453e-66
1.21417155453e-66
1.21417155453e-66
1.21417155453e-66
1.21417155453e-66
1.21417155455e-66
1.21417155546e-66
1.21417160833e-66
1.21417466338e-66
1.21434749341e-66
1.22191755463e-66
2.8414659933e-27
2.42348787767e-09
0.000367360585236
4.82011641837e-05
2.0242604396e-05
1.40484403767e-05
1.20780907152e-05
1.13362367482e-05
1.09468969944e-05
1.06553296417e-05
1.03965759281e-05
1.01520919801e-05
9.92223608254e-06
9.69798720914e-06
9.48652381906e-06
9.27986805448e-06
9.08439945606e-06
8.89234326301e-06
8.70618994414e-06
8.53007043833e-06
8.35510770346e-06
8.18535040329e-06
8.02419259832e-06
7.86350558041e-06
7.70735441499e-06
7.55887561923e-06
7.41076764454e-06
7.26672905104e-06
7.13093188205e-06
6.99555082624e-06
6.86444209328e-06
6.73783359488e-06
6.6198706077e-06
6.50266014964e-06
6.39100431148e-06
6.28483795881e-06
6.18790251432e-06
6.09331503133e-06
6.00507345289e-06
5.92325809651e-06
5.8479870144e-06
5.78350907953e-06
5.72237360066e-06
5.6685787786e-06
5.62207166626e-06
5.58304285897e-06
5.55140406645e-06
5.52724660392e-06
5.51043441739e-06
5.49976881782e-06
1.21417155452e-66
1.21417155452e-66
1.21417155452e-66
1.21417155452e-66
1.21417155452e-66
1.21417155452e-66
1.21417155452e-66
1.21417155452e-66
1.21417155452e-66
1.21417155452e-66
1.21417155452e-66
1.21417155452e-66
1.21417155452e-66
1.21417155452e-66
1.21417155459e-66
1.21417155849e-66
1.21417178105e-66
1.21418404032e-66
1.21486164072e-66
1.22943337533e-66
2.00390208773e-26
2.97338311774e-07
0.000497904954245
3.4270474208e-05
1.82822851634e-05
1.3943669676e-05
1.25192416542e-05
1.19055394124e-05
1.15224273915e-05
1.12108062874e-05
1.09276242174e-05
1.06554806984e-05
1.03999090959e-05
1.01519801192e-05
9.91433012644e-06
9.68981131589e-06
9.47044453647e-06
9.26289675878e-06
9.05884520951e-06
8.86620497224e-06
8.6757638403e-06
8.49141979274e-06
8.31647359792e-06
8.14283174442e-06
7.97418742484e-06
7.81459829478e-06
7.65566845907e-06
7.50158292493e-06
7.3561090376e-06
7.21166949205e-06
7.07227373529e-06
6.94203337481e-06
6.8128532224e-06
6.68958137085e-06
6.57197507553e-06
6.46404371794e-06
6.35845900218e-06
6.25939499107e-06
6.1670537903e-06
6.08547522412e-06
6.0070491238e-06
5.93588832807e-06
5.87222128933e-06
5.81615861932e-06
5.76765618555e-06
5.72673979469e-06
5.69758173063e-06
5.67219313526e-06
5.65447638127e-06
5.64329345785e-06
1.21417155451e-66
1.21417155451e-66
1.21417155451e-66
1.21417155451e-66
1.21417155451e-66
1.21417155451e-66
1.21417155451e-66
1.21417155451e-66
1.21417155451e-66
1.21417155451e-66
1.21417155451e-66
1.21417155451e-66
1.21417155451e-66
1.21417155452e-66
1.21417155479e-66
1.21417157011e-66
1.21417243893e-66
1.21421980031e-66
1.21681420414e-66
1.25492802651e-66
1.53008027846e-14
0.0001111934166
0.000152481782814
2.70726954443e-05
1.71049119055e-05
1.40924340698e-05
1.30482888768e-05
1.25143947868e-05
1.21223030066e-05
1.17872301447e-05
1.14700044643e-05
1.1173075706e-05
1.08867207027e-05
1.06172872908e-05
1.03562403205e-05
1.0109970905e-05
9.86989287348e-06
9.64317443792e-06
9.42100801935e-06
9.21078477117e-06
9.00398978424e-06
8.803886658e-06
8.61510340023e-06
8.42807452365e-06
8.24731719296e-06
8.07602373847e-06
7.90640687484e-06
7.74612418578e-06
7.58731591911e-06
7.43407615269e-06
7.28613485926e-06
7.14810024715e-06
7.01197784186e-06
6.88191765695e-06
6.76234232619e-06
6.64512635423e-06
6.53464888933e-06
6.43097378208e-06
6.33873815394e-06
6.24954261725e-06
6.16791569284e-06
6.09394231384e-06
6.02753742714e-06
5.9691661041e-06
5.92276173361e-06
5.88031411646e-06
5.84585990055e-06
5.81940423243e-06
5.80080895121e-06
5.78912081537e-06
1.21417155451e-66
1.21417155451e-66
1.21417155451e-66
1.21417155451e-66
1.21417155451e-66
1.21417155451e-66
1.21417155451e-66
1.21417155451e-66
1.21417155451e-66
1.21417155451e-66
1.21417155451e-66
1.21417155451e-66
1.21417155451e-66
1.21417155453e-66
1.21417155554e-66
1.21417161259e-66
1.21417484522e-66
1.21435502525e-66
1.22221850576e-66
2.73901102347e-27
2.04664502159e-09
0.000348749415085
5.50984273097e-05
2.3039924774e-05
1.65226078934e-05
1.44519049998e-05
1.36442430694e-05
1.31458164155e-05
1.27431495646e-05
1.23725766135e-05
1.20270703811e-05
1.16960590444e-05
1.13863178576e-05
1.10911400164e-05
1.08057970347e-05
1.05373152513e-05
1.0276169623e-05
1.00296901035e-05
9.78901600924e-06
9.56159567386e-06
9.33822011792e-06
9.12319001843e-06
8.9196762295e-06
8.71869376049e-06
8.52893042534e-06
8.34174805226e-06
8.16124056099e-06
7.99114187072e-06
7.82274992972e-06
7.66054882016e-06
7.5090213341e-06
7.35931214494e-06
7.21611170613e-06
7.08387615837e-06
6.95418198059e-06
6.83146313232e-06
6.71597809481e-06
6.61214839529e-06
6.51147987443e-06
6.41866317621e-06
6.33387904368e-06
6.26131336391e-06
6.19245354675e-06
6.13181620934e-06
6.07949774278e-06
6.0355308821e-06
5.99970056384e-06
5.97215703548e-06
5.9526902847e-06
5.94046952259e-06
1.2141715545e-66
1.2141715545e-66
1.2141715545e-66
1.2141715545e-66
1.2141715545e-66
1.2141715545e-66
1.2141715545e-66
1.2141715545e-66
1.2141715545e-66
1.2141715545e-66
1.2141715545e-66
1.2141715545e-66
1.2141715545e-66
1.2141715546e-66
1.21417156006e-66
1.21417186511e-66
1.21418834031e-66