/*--------------------------------*- C++ -*----------------------------------*\
| =========                 |                                                 |
| \\      /  F ield         | foam-extend: Open Source CFD                    |
|  \\    /   O peration     | Version:     4.1                                |
|   \\  /    A nd           | Web:         http://www.foam-extend.org         |
|    \\/     M anipulation  |                                                 |
\*---------------------------------------------------------------------------*/
FoamFile
{
    version     2.0;
    format      ascii;
    class       volScalarField;
    location    "0.0005";
    object      NPlus;
}
// * * * * * * * * * * * * * * * * * * * * * * * * * * * * * * * * * * * * * //

dimensions      [0 0 0 0 0 0 0];

internalField   nonuniform List<scalar> 
8400
(
9.99867026696e-266
9.99867026702e-266
9.99867026708e-266
9.99867026714e-266
9.9986702672e-266
9.99867026725e-266
9.99867026731e-266
9.99867026736e-266
9.99867026742e-266
9.99867026747e-266
9.99867026752e-266
9.99867026757e-266
9.99867026762e-266
9.99867026767e-266
9.99867026772e-266
9.99867026776e-266
9.99867026781e-266
9.99867026785e-266
9.9986702679e-266
9.99867026818e-266
9.99867028219e-266
9.99867112409e-266
9.99872038044e-266
1.00015780611e-265
1.00977450018e-265
1.20750443511e-99
2.7185845135e-21
6.90252014042e-05
0.15611849192
0.372562397825
0.485594251096
0.533780503661
0.552424488883
0.558999380768
0.561257100144
0.562186977393
0.562813770569
0.563360579511
0.563883126418
0.56440033398
0.564858525164
0.565387118092
0.565928560111
0.566486400754
0.567066899006
0.567673900832
0.568310084855
0.56897989574
0.569686157101
0.570429342939
0.571207901515
0.571961331083
0.572810692667
0.573689169801
0.574591495024
0.575514239714
0.576449891441
0.577391296883
0.578323674108
0.57923777758
0.580129258383
0.580915784376
0.581713765184
0.582441713634
0.58308779689
0.583644393578
0.584101505725
0.584454064538
0.584696386794
0.585029392807
9.99867025182e-266
9.99867025184e-266
9.99867025186e-266
9.99867025189e-266
9.99867025191e-266
9.99867025193e-266
9.99867025195e-266
9.99867025198e-266
9.998670252e-266
9.99867025202e-266
9.99867025204e-266
9.99867025206e-266
9.99867025208e-266
9.9986702521e-266
9.99867025212e-266
9.99867025214e-266
9.99867025216e-266
9.99867025218e-266
9.99867025222e-266
9.99867025362e-266
9.99867033655e-266
9.99867530434e-266
9.99895863114e-266
1.00154482372e-265
1.02963737058e-265
3.22899627288e-63
5.57932607825e-09
0.0113032059948
0.261218691505
0.434623683636
0.5154221345
0.547700364215
0.559572036073
0.563423594333
0.56460529419
0.565266274883
0.565753258885
0.566232966716
0.566726620789
0.567237509177
0.567769228686
0.568324685726
0.568907514707
0.569518139496
0.57015610759
0.570825183804
0.571526932683
0.57226335909
0.57303638489
0.573845238533
0.574683964772
0.575554587256
0.57645558051
0.577377857845
0.578318008221
0.57927133703
0.580225431229
0.581171690751
0.582102340302
0.582955025743
0.583827517867
0.584654625641
0.585423338541
0.586118382603
0.586733296365
0.587261331223
0.587694480554
0.588026961009
0.588254057696
0.588525517283
9.99867024535e-266
9.99867024537e-266
9.99867024538e-266
9.9986702454e-266
9.99867024541e-266
9.99867024542e-266
9.99867024544e-266
9.99867024545e-266
9.99867024546e-266
9.99867024548e-266
9.99867024549e-266
9.9986702455e-266
9.99867024551e-266
9.99867024553e-266
9.99867024554e-266
9.99867024555e-266
9.99867024556e-266
9.99867024558e-266
9.9986702457e-266
9.99867025218e-266
9.99867063084e-266
9.99869271346e-266
9.99991971649e-266
1.00681617508e-265
1.82871328791e-101
2.43931790918e-25
1.33552390428e-05
0.115245847329
0.350022652758
0.479006099287
0.534478493031
0.555887389627
0.563135830593
0.56532782587
0.566113789659
0.566562533162
0.566973360937
0.567394037426
0.567837608572
0.568307987791
0.568808508856
0.569339845991
0.569902205057
0.570497152679
0.571127302016
0.571793066202
0.572496139338
0.573238003454
0.574015884221
0.574826535025
0.575672127148
0.576549564833
0.577448144625
0.578367390381
0.579302188312
0.58024140676
0.581178013066
0.582102940821
0.583010734113
0.583891210645
0.584729164175
0.58551989254
0.586194269837
0.586854701801
0.587437815861
0.58793659474
0.588343528127
0.588653451041
0.588863463167
0.589095689663
9.9986702418e-266
9.99867024181e-266
9.99867024182e-266
9.99867024183e-266
9.99867024184e-266
9.99867024185e-266
9.99867024186e-266
9.99867024186e-266
9.99867024187e-266
9.99867024188e-266
9.99867024189e-266
9.9986702419e-266
9.99867024191e-266
9.99867024192e-266
9.99867024193e-266
9.99867024194e-266
9.99867024195e-266
9.99867024196e-266
9.99867024249e-266
9.99867027372e-266
9.99867213835e-266
9.9987792092e-266
1.00050133515e-265
1.01476618356e-265
3.27519482019e-99
1.58966858604e-17
0.000439887687506
0.210166765868
0.40781646132
0.504790227534
0.544236055193
0.559058175169
0.563801411257
0.565245913565
0.565910385738
0.566367873167
0.566810309619
0.567263079752
0.567736020751
0.568233296429
0.568759389021
0.569315518831
0.569902420701
0.570521598268
0.571176134324
0.571866550695
0.572594206465
0.573359928365
0.574160351999
0.574992588018
0.575858566235
0.576753732311
0.577666006268
0.578595678463
0.579536885441
0.580477161645
0.581412015882
0.582333193835
0.583176699828
0.584042561102
0.584867475855
0.585639727107
0.586348621275
0.586988525749
0.587552554162
0.588033338098
0.588424320127
0.588721284666
0.588922103699
0.589134044637
9.99867023959e-266
9.9986702396e-266
9.99867023961e-266
9.99867023962e-266
9.99867023962e-266
9.99867023963e-266
9.99867023964e-266
9.99867023965e-266
9.99867023965e-266
9.99867023966e-266
9.99867023967e-266
9.99867023967e-266
9.99867023968e-266
9.99867023969e-266
9.9986702397e-266
9.9986702397e-266
9.99867023971e-266
9.99867023975e-266
9.99867024165e-266
9.99867035517e-266
9.99867713817e-266
9.99906504058e-266
1.00217557517e-265
1.03762160969e-265
2.01806248427e-47
7.72145275542e-08
0.0276444859831
0.280596712178
0.444445324028
0.519385832549
0.548959809062
0.55962379573
0.562933532138
0.563990890998
0.564634897239
0.565142871359
0.565650626546
0.566174260752
0.566717661015
0.567281642002
0.567869984441
0.568487228637
0.56913575394
0.569815445334
0.570525699724
0.571269725557
0.572048051263
0.572861665888
0.573710332615
0.574588041357
0.575493363911
0.57642522287
0.577372872464
0.578333236288
0.579244501185
0.580211238505
0.581167792012
0.582099336815
0.583002798856
0.583871279002
0.584697903382
0.585471607886
0.586178257995
0.586813175036
0.587371508277
0.587846664117
0.588233424166
0.588526635813
0.588724608118
0.588927438309
9.99867023812e-266
9.99867023813e-266
9.99867023813e-266
9.99867023814e-266
9.99867023815e-266
9.99867023815e-266
9.99867023816e-266
9.99867023816e-266
9.99867023817e-266
9.99867023818e-266
9.99867023818e-266
9.99867023819e-266
9.99867023819e-266
9.9986702382e-266
9.9986702382e-266
9.99867023821e-266
9.99867023822e-266
9.99867023831e-266
9.99867024329e-266
9.99867053752e-266
9.99868786223e-266
9.99966109179e-266
1.00547727173e-265
1.07410659509e-265
1.65475137772e-29
5.23026982604e-06
0.0921538199732
0.331346568845
0.467843776875
0.527202796782
0.550334491366
0.558365050214
0.560897360514
0.561862583626
0.562565824737
0.563160719969
0.5637581386
0.564368474399
0.564995434477
0.565644396155
0.566318798306
0.567018815248
0.567743937049
0.56849960489
0.569288693641
0.570108201646
0.570957262131
0.571837931019
0.572749148285
0.573691776641
0.574602251027
0.575586004779
0.576582933327
0.577590303059
0.578601262599
0.579602556139
0.580590294054
0.58155382859
0.58248183511
0.58337019565
0.584212556681
0.5849429668
0.585661532888
0.58630431875
0.586866999455
0.587345401845
0.587734768614
0.588030557764
0.588230254392
0.588428207393
9.99867023708e-266
9.99867023709e-266
9.99867023709e-266
9.9986702371e-266
9.9986702371e-266
9.99867023711e-266
9.99867023711e-266
9.99867023712e-266
9.99867023712e-266
9.99867023713e-266
9.99867023713e-266
9.99867023714e-266
9.99867023714e-266
9.99867023715e-266
9.99867023715e-266
9.99867023716e-266
9.99867023717e-266
9.99867023736e-266
9.99867024918e-266
9.99867096954e-266
9.99871382818e-266
1.00012240349e-265
1.00934836124e-265
9.88155359845e-100
7.68589545446e-22
5.59097591602e-05
0.150425734379
0.368835753618
0.482995049488
0.531154855778
0.549580901174
0.555989242353
0.558064305541
0.559028443662
0.559771673704
0.560537869697
0.561243071851
0.561959164147
0.562690440928
0.563442478527
0.564215224148
0.565008815862
0.565829377845
0.566679398358
0.567556390453
0.568406426195
0.569340713441
0.570303393158
0.571294980971
0.572307297309
0.573341817923
0.574393301874
0.575451797543
0.576514262781
0.577575779936
0.578631602327
0.579665893219
0.58061046497
0.581579131848
0.582499060679
0.583368213309
0.584177439815
0.584913795561
0.585571815924
0.586146788415
0.5866342309
0.587030436114
0.587331796389
0.587536008996
0.587733490096
9.99867023632e-266
9.99867023632e-266
9.99867023633e-266
9.99867023633e-266
9.99867023634e-266
9.99867023634e-266
9.99867023635e-266
9.99867023635e-266
9.99867023635e-266
9.99867023636e-266
9.99867023636e-266
9.99867023637e-266
9.99867023637e-266
9.99867023637e-266
9.99867023638e-266
9.99867023638e-266
9.9986702364e-266
9.99867023691e-266
9.9986702676e-266
9.99867210005e-266
9.99877744352e-266
1.00049040511e-265
1.01472078652e-265
3.1847844717e-99
1.0477326293e-17
0.000378667643332
0.201938979827
0.396891905847
0.493086974938
0.532549697153
0.547597619253
0.552702675008
0.554553573179
0.555583851767
0.556458493084
0.557301017203
0.558135600021
0.558975896857
0.559826357563
0.560693656325
0.561578691285
0.562480846578
0.563407497973
0.56435938142
0.565333344003
0.566336201713
0.567365899932
0.568416738886
0.569490486924
0.570586333921
0.571700527655
0.572824753681
0.573899897393
0.57502996524
0.576152435448
0.577262159712
0.578345271418
0.579397007955
0.580409069381
0.58137441171
0.58227816556
0.583114622732
0.583819722279
0.584503841732
0.585097555991
0.585600201144
0.586008427286
0.586318724349
0.586529400824
0.586728170357
9.99867023573e-266
9.99867023574e-266
9.99867023574e-266
9.99867023575e-266
9.99867023575e-266
9.99867023576e-266
9.99867023576e-266
9.99867023576e-266
9.99867023577e-266
9.99867023577e-266
9.99867023577e-266
9.99867023578e-266
9.99867023578e-266
9.99867023578e-266
9.99867023579e-266
9.99867023579e-266
9.99867023582e-266
9.99867023701e-266
9.99867030923e-266
9.9986746848e-266
9.99892783666e-266
1.00137855267e-265
1.02764396065e-265
2.216296856e-63
1.28706437538e-09
0.00589276594246
0.246477985836
0.418692910643
0.499713553761
0.532416908911
0.54460461032
0.54880099919
0.55052807456
0.55164169591
0.552643305704
0.553624750783
0.554601788818
0.555578661987
0.556565178032
0.557560272529
0.558565914586
0.559586598811
0.560628683385
0.561692532087
0.562774758686
0.563882704086
0.565011779144
0.56616241968
0.567275273289
0.568460207598
0.569659255088
0.570865923258
0.572073134228
0.573277884274
0.574465453648
0.575632833431
0.576777637297
0.577828195941
0.578890396189
0.579899450714
0.580845132218
0.581718114608
0.582511606207
0.583220076218
0.583838248009
0.584361451735
0.584785682638
0.585106706008
0.585323738783
0.585522741481
9.99867023528e-266
9.99867023528e-266
9.99867023528e-266
9.99867023529e-266
9.99867023529e-266
9.99867023529e-266
9.9986702353e-266
9.9986702353e-266
9.9986702353e-266
9.99867023531e-266
9.99867023531e-266
9.99867023531e-266
9.99867023532e-266
9.99867023532e-266
9.99867023532e-266
9.99867023533e-266
9.99867023538e-266
9.99867023816e-266
9.99867040342e-266
9.99868020962e-266
9.99923548745e-266
1.00311639591e-265
1.04861394632e-265
4.3029668487e-42
4.25920560966e-07
0.0424044669998
0.284653435517
0.435354714856
0.503394619852
0.530873361565
0.540879610009
0.544450280367
0.54605865465
0.547271312423
0.548401892725
0.549521908385
0.550638116
0.551754738899
0.552876061055
0.554008873308
0.555149407134
0.556303019502
0.557473417995
0.55865812636
0.559802804352
0.561022115909
0.562260471288
0.563517561129
0.564786226279
0.566069502829
0.567356651219
0.568646624321
0.569938570321
0.571159929833
0.572423341056
0.57366327792
0.57486801419
0.5760321039
0.577148349748
0.578204200075
0.579190396755
0.580041911707
0.58087283108
0.581615940218
0.582263645307
0.582807241036
0.583246817439
0.583580056707
0.583805426659
0.584006237543
9.99867023491e-266
9.99867023491e-266
9.99867023491e-266
9.99867023492e-266
9.99867023492e-266
9.99867023492e-266
9.99867023493e-266
9.99867023493e-266
9.99867023493e-266
9.99867023494e-266
9.99867023494e-266
9.99867023494e-266
9.99867023495e-266
9.99867023495e-266
9.99867023495e-266
9.99867023496e-266
9.99867023506e-266
9.99867024076e-266
9.99867057456e-266
9.99869003677e-266
9.99977309678e-266
1.00602369433e-265
1.08034057866e-265
4.12993086659e-28
6.01495794176e-06
0.0884724128684
0.318071152267
0.448050886498
0.505232038038
0.527995383014
0.536306405259
0.539446393396
0.541097567733
0.542454205892
0.543743101236
0.545014238529
0.546282244303
0.547549945854
0.548817580427
0.550093762198
0.551316140708
0.552605722289
0.553908820038
0.555223279491
0.556549898662
0.55789149862
0.559250198864
0.560616063417
0.561991020652
0.563317244607
0.564702071409
0.566087633723
0.567463186244
0.568827112229
0.570166432968
0.571475284678
0.572688210091
0.573918625202
0.575087736178
0.576191855395
0.577225163821
0.57818070564
0.579046111341
0.579817758523
0.580490527715
0.580999075008
0.581458581478
0.581804178023
0.582038068522
0.582241767157
9.9986702346e-266
9.99867023461e-266
9.99867023461e-266
9.99867023461e-266
9.99867023462e-266
9.99867023462e-266
9.99867023462e-266
9.99867023462e-266
9.99867023463e-266
9.99867023463e-266
9.99867023463e-266
9.99867023464e-266
9.99867023464e-266
9.99867023464e-266
9.99867023464e-266
9.99867023465e-266
9.99867023485e-266
9.99867024701e-266
9.99867098287e-266
9.99871453525e-266
1.00012436191e-265
1.00957110156e-265
9.49298481017e-100
5.45738718493e-22
4.48193214364e-05
0.135215904207
0.34566425023
0.457211338498
0.505198629665
0.524053391095
0.531045498547
0.533933101987
0.535691560168
0.537212679211
0.538677973002
0.54012550255
0.541558198584
0.542927924792
0.544357847308
0.545780503917
0.547210625109
0.548641809047
0.55007989221
0.55153061646
0.552988879938
0.554399426933
0.55587704461
0.557365148891
0.558857390771
0.560348469453
0.561837740222
0.563317275089
0.564722393626
0.566173651052
0.567594941698
0.568977977187
0.570318836198
0.571609524349
0.572776946948
0.573936288685
0.575016649069
0.576013709948
0.576920332741
0.577724886051
0.578424292628
0.579013480635
0.579489589095
0.579850421044
0.58009534716
0.580302456921
9.99867023435e-266
9.99867023435e-266
9.99867023436e-266
9.99867023436e-266
9.99867023436e-266
9.99867023436e-266
9.99867023437e-266
9.99867023437e-266
9.99867023437e-266
9.99867023437e-266
9.99867023438e-266
9.99867023438e-266
9.99867023438e-266
9.99867023439e-266
9.99867023439e-266
9.9986702344e-266
9.99867023493e-266
9.99867026629e-266
9.99867212016e-266
9.99877777048e-266
1.00048440136e-265
1.01484584686e-265
2.99699513263e-99
4.05214927514e-18
0.000268182633511
0.181461001859
0.369659395139
0.46402000625
0.503698059516
0.519266031156
0.52521444184
0.527938446753
0.52983519724
0.531558947614
0.533172455952
0.534810314876
0.536428514661
0.538029901581
0.539623274917
0.541208164546
0.542789771984
0.544376691455
0.545905061402
0.547495811008
0.549088046858
0.550690603676
0.55229206825
0.553902637564
0.555448322603
0.557053510646
0.558651843001
0.560232180258
0.561796187925
0.563336702525
0.564779524085
0.566241866527
0.567655308695
0.569011632128
0.57029726041
0.571508808508
0.572578321827
0.573619405857
0.574562781593
0.575404234529
0.576134235848
0.576746829838
0.577241723128
0.577617020792
0.577871857253
0.578081254168
9.99867023414e-266
9.99867023414e-266
9.99867023414e-266
9.99867023414e-266
9.99867023415e-266
9.99867023415e-266
9.99867023415e-266
9.99867023415e-266
9.99867023416e-266
9.99867023416e-266
9.99867023416e-266
9.99867023416e-266
9.99867023417e-266
9.99867023417e-266
9.99867023417e-266
9.99867023419e-266
9.99867023547e-266
9.9986703115e-266
9.99867484909e-266
9.99893474163e-266
1.00140097092e-265
1.02814849404e-265
2.03360963049e-63
5.87143646866e-10
0.00302652720859
0.224939943378
0.389805527065
0.468360494543
0.50097596749
0.513795429932
0.518857623129
0.521529403596
0.523540694273
0.525475381027
0.527349694593
0.529192608065
0.531004012567
0.532799009382
0.534573497218
0.536278436993
0.538032395588
0.539772934761
0.541513071111
0.543251259813
0.544930049154
0.546665585852
0.548399126947
0.550133216512
0.551858319417
0.55357861049
0.555223356415
0.556908439128
0.558573306766
0.560200122687
0.561791591764
0.563275450553
0.564766435979
0.566193939798
0.567542371306
0.568808226863
0.56998639757
0.571073257133
0.571994444855
0.572869407307
0.573627719673
0.574265388369
0.574780044069
0.575169803645
0.575434404844
0.575645582016
9.99867023395e-266
9.99867023395e-266
9.99867023396e-266
9.99867023396e-266
9.99867023396e-266
9.99867023396e-266
9.99867023397e-266
9.99867023397e-266
9.99867023397e-266
9.99867023397e-266
9.99867023397e-266
9.99867023398e-266
9.99867023398e-266
9.99867023398e-266
9.99867023398e-266
9.99867023404e-266
9.99867023738e-266
9.9986704334e-266
9.99868190125e-266
9.99932305862e-266
1.00355389209e-265
1.05395957515e-265
3.22596127366e-41
5.15638741936e-07
0.0374006765473
0.264886731834
0.405966541883
0.470528934033
0.497181129275
0.507720847175
0.512130819374
0.51475746875
0.516994956576
0.519129515958
0.521217365976
0.523259601775
0.525218491038
0.527205730192
0.529167397205
0.531111855365
0.533037524574
0.534894200172
0.536803039179
0.5386968862
0.540585060944
0.54246230371
0.544270366312
0.546135223402
0.547983207479
0.549821316354
0.551636226512
0.553364565336
0.55512488485
0.556849041206
0.558527161364
0.560151732688
0.561653415964
0.563150248657
0.564565582271
0.565897553656
0.567132028909
0.568262051452
0.569283680797
0.570126871717
0.570917068949
0.571580516687
0.572115590898
0.572521309743
0.572797379046
0.573011680936
9.99867023379e-266
9.99867023379e-266
9.9986702338e-266
9.9986702338e-266
9.9986702338e-266
9.9986702338e-266
9.9986702338e-266
9.99867023381e-266
9.99867023381e-266
9.99867023381e-266
9.99867023381e-266
9.99867023382e-266
9.99867023382e-266
9.99867023382e-266
9.99867023382e-266
9.99867023396e-266
9.9986702418e-266
9.99867069106e-266
9.99869627889e-266
1.00000878322e-265
1.00749835279e-265
7.05632372065e-101
2.20363120946e-25
9.66401641804e-06
0.0879553668105
0.299598351936
0.417776900289
0.470703870882
0.492249093911
0.500972062582
0.504958794773
0.507694170826
0.510147397785
0.512500009205
0.514744703164
0.517000901688
0.519222373932
0.521409665254
0.523562079121
0.525631284167
0.527743183603
0.529827138582
0.531900423857
0.533893605121
0.535938022402
0.537967978257
0.539982473396
0.54191867004
0.543898441024
0.54585088001
0.547783296459
0.549679788668
0.551479434275
0.553295713729
0.555060691285
0.556769746673
0.55840908856
0.559906221207
0.561388399512
0.562778258484
0.564062803757
0.565240385918
0.566305958863
0.567186161831
0.568008209995
0.568698757
0.56925586904
0.569678397965
0.569965946852
0.570182781261
9.99867023365e-266
9.99867023365e-266
9.99867023366e-266
9.99867023366e-266
9.99867023366e-266
9.99867023366e-266
9.99867023366e-266
9.99867023367e-266
9.99867023367e-266
9.99867023367e-266
9.99867023367e-266
9.99867023367e-266
9.99867023368e-266
9.99867023368e-266
9.99867023369e-266
9.99867023409e-266
9.99867025773e-266
9.99867164325e-266
9.99875040221e-266
1.00032171501e-265
1.01280666486e-265
1.98739891897e-99
5.44962821311e-20
9.39503554086e-05
0.141640601824
0.329175645949
0.42673322359
0.468861046815
0.48629149452
0.493541942325
0.497363357523
0.500281988268
0.502976559542
0.505518796679
0.508060133199
0.510549313795
0.51292655703
0.515319244588
0.517669076553
0.519990795345
0.522217557941
0.524484270917
0.526722353453
0.528944896168
0.531078107956
0.533262535663
0.535417857096
0.537557113719
0.539602196914
0.541686093636
0.543732845935
0.545743956744
0.547641028019
0.549553658744
0.551407203055
0.553197432708
0.554911379455
0.556478247337
0.55802303302
0.559466491829
0.560806294223
0.56203203168
0.563137727588
0.564046996672
0.564899115219
0.565614520407
0.566193056243
0.566632992563
0.566932430819
0.567153594878
9.99867023353e-266
9.99867023353e-266
9.99867023353e-266
9.99867023353e-266
9.99867023354e-266
9.99867023354e-266
9.99867023354e-266
9.99867023354e-266
9.99867023354e-266
9.99867023355e-266
9.99867023355e-266
9.99867023355e-266
9.99867023355e-266
9.99867023355e-266
9.99867023358e-266
9.99867023477e-266
9.99867030393e-266
9.99867431134e-266
9.99889837216e-266
1.00116512502e-265
1.02502477187e-265
5.1301664173e-64
8.00546539176e-12
0.000928707829827
0.193697369402
0.353539266918
0.432116253555
0.465616892894
0.479542712909
0.485696606093
0.489460745591
0.492538076998
0.495486388687
0.498347195018
0.501068564452
0.50378967739
0.506452524085
0.509059984029
0.511561864438
0.514086922889
0.516567192661
0.518949610236
0.521363085192
0.523748519739
0.526102859809
0.528369172166
0.530674885739
0.532946264758
0.535122373929
0.537327302886
0.53949245247
0.541617249683
0.543618851841
0.545632499214
0.547579539096
0.549451525288
0.551241345162
0.552876618377
0.554484183538
0.555985134204
0.557372485443
0.558641274638
0.559789981249
0.560731233435
0.561615888368
0.562358233911
0.562956864227
0.563410988932
0.563720396291
0.563942864841
9.99867023342e-266
9.99867023342e-266
9.99867023342e-266
9.99867023342e-266
9.99867023342e-266
9.99867023343e-266
9.99867023343e-266
9.99867023343e-266
9.99867023343e-266
9.99867023343e-266
9.99867023344e-266
9.99867023344e-266
9.99867023344e-266
9.99867023344e-266
9.99867023351e-266
9.9986702374e-266
9.99867046197e-266
9.99868339853e-266
9.99939671733e-266
1.00389019252e-265
1.05815328616e-265
4.40194317061e-41
5.00022695261e-07
0.0290668813304
0.240572350143
0.372857742956
0.434890718924
0.46098456876
0.472153188235
0.477510744915
0.481276218868
0.48464171095
0.487853392336
0.490910204663
0.493944760465
0.496899492136
0.499730202034
0.502553813815
0.505328640646
0.507987802019
0.510660770956
0.513296737086
0.515827209625
0.518382741565
0.520904811241
0.523322073508
0.525767176483
0.528178175264
0.530480909033
0.532809652831
0.535094458264
0.537323506581
0.539427954394
0.541535514899
0.543568941217
0.545529627814
0.547326756364
0.549103280751
0.550772756465
0.552331012033
0.553773698872
0.555089705453
0.556196450733
0.557246656052
0.55815510527
0.558922276957
0.55954270859
0.560013143221
0.560334528688
0.560560517287
9.99867023332e-266
9.99867023332e-266
9.99867023332e-266
9.99867023332e-266
9.99867023333e-266
9.99867023333e-266
9.99867023333e-266
9.99867023333e-266
9.99867023333e-266
9.99867023334e-266
9.99867023334e-266
9.99867023334e-266
9.99867023334e-266
9.99867023335e-266
9.99867023355e-266
9.99867024483e-266
9.9986708939e-266
9.99870840386e-266
1.00008304126e-265
1.00937756924e-265
5.70563551207e-100
1.37395992028e-23
1.70336306307e-05
0.0883313577838
0.280370139616
0.386891112263
0.434697672068
0.455135355695
0.464075711958
0.469056172505
0.472952035443
0.476569963845
0.479990617511
0.483374065449
0.486600494167
0.489796703766
0.492854142021
0.495896944522
0.498883062805
0.501736333771
0.504608821443
0.507428618213
0.510131223418
0.51285991468
0.515541283365
0.518115829144
0.520715002359
0.523269553845
0.52569961903
0.528149212544
0.530547236972
0.532886517043
0.5350835997
0.537289701169
0.539410677231
0.541446212766
0.54331556256
0.545158202186
0.54688933738
0.548505021551
0.550001722972
0.551286419884
0.552514182105
0.553597538785
0.554535630904
0.555324049242
0.555961933557
0.556447176927
0.55678041429
0.557009679881
9.99867023323e-266
9.99867023323e-266
9.99867023323e-266
9.99867023324e-266
9.99867023324e-266
9.99867023324e-266
9.99867023324e-266
9.99867023324e-266
9.99867023324e-266
9.99867023325e-266
9.99867023325e-266
9.99867023325e-266
9.99867023325e-266
9.99867023327e-266
9.9986702341e-266
9.99867028199e-266
9.99867301459e-266
9.99882353396e-266
1.00071431178e-265
1.01860550067e-265
3.70547544634e-99
2.61307437627e-17
0.000235396044491
0.149969508944
0.31281281361
0.395719031896
0.432102344817
0.448024075106
0.4555582201
0.460355262927
0.464413140619
0.468304686771
0.47199774408
0.475635274958
0.479171911297
0.482553968941
0.485906650252
0.489116665881
0.492318164175
0.495373907486
0.498436295359
0.501437203936
0.504315496681
0.507210681793
0.510055565029
0.512775971863
0.51552010797
0.518210068965
0.520773780494
0.523351718758
0.525865540822
0.528234588536
0.530611589236
0.5329014481
0.535106641467
0.537146268137
0.539161957982
0.541067330291
0.542858302703
0.544446818149
0.545987032171
0.547391902413
0.548654879615
0.549771158685
0.550738394673
0.551555857778
0.552132258687
0.552637009913
0.552983504194
0.553217483569
9.99867023315e-266
9.99867023315e-266
9.99867023315e-266
9.99867023316e-266
9.99867023316e-266
9.99867023316e-266
9.99867023316e-266
9.99867023316e-266
9.99867023316e-266
9.99867023317e-266
9.99867023317e-266
9.99867023317e-266
9.99867023317e-266
9.99867023323e-266
9.99867023654e-266
9.99867042464e-266
9.99868109201e-266
9.99926259549e-266
1.00311167091e-265
1.04990785638e-265
7.14721808756e-47
1.13167921308e-07
0.0104141526296
0.206546937578
0.337252082717
0.400307842055
0.427719249741
0.440113043645
0.446718098734
0.451474440081
0.455840254734
0.459952115174
0.463979211315
0.467821447091
0.471605449461
0.475223533102
0.478805096871
0.48223212441
0.485640028511
0.488904349881
0.49216292956
0.495358393805
0.49840671294
0.501468637651
0.504465488048
0.507335590999
0.510216905276
0.512967640293
0.515727397841
0.518420862743
0.521052806195
0.523529583392
0.52600119458
0.528387188512
0.530597227016
0.532787642316
0.534870754048
0.536842101978
0.538604462192
0.540324492367
0.541908798711
0.543351781262
0.544654790084
0.545804387026
0.546714045946
0.547552079045
0.548229500519
0.548747094763
0.549105327304
0.549342630906
9.99867023308e-266
9.99867023308e-266
9.99867023308e-266
9.99867023308e-266
9.99867023308e-266
9.99867023309e-266
9.99867023309e-266
9.99867023309e-266
9.99867023309e-266
9.99867023309e-266
9.99867023309e-266
9.99867023309e-266
9.9986702331e-266
9.99867023332e-266
9.99867024578e-266
9.99867094619e-266
9.99871063652e-266
1.00009228885e-265
1.00974707732e-265
5.48580209833e-100
1.03904570702e-23
1.307249982e-05
0.0721414843811
0.252741508443
0.35431204298
0.401231075477
0.421852821281
0.431704621415
0.437650460435
0.442600703029
0.447180443332
0.451635090819
0.455866630437
0.459965950433
0.463998027859
0.467846078487
0.471651002665
0.475293379262
0.478906318997
0.48236460058
0.485813661845
0.489181186834
0.49240574331
0.495639932852
0.498728115223
0.50181710317
0.50483480637
0.507708084976
0.510591809921
0.51340250785
0.516053225045
0.518707600028
0.521273457014
0.523662720296
0.526033830183
0.528298574201
0.530450061535
0.532395850234
0.534302478902
0.536071473129
0.537697515588
0.53909122768
0.54042754119
0.541607097721
0.542623986576
0.543480171605
0.544175113773
0.544707455829
0.545077486386
0.545318378121
9.99867023301e-266
9.99867023301e-266
9.99867023301e-266
9.99867023302e-266
9.99867023302e-266
9.99867023302e-266
9.99867023302e-266
9.99867023302e-266
9.99867023302e-266
9.99867023303e-266
9.99867023303e-266
9.99867023303e-266
9.99867023305e-266
9.99867023425e-266
9.99867030125e-266
9.99867404662e-266
9.99887632933e-266
1.0009842489e-265
1.02259544456e-265
4.58954415004e-99
9.26401336485e-16
0.00028011305312
0.141001869041
0.289104301103
0.364872024742
0.398871406103
0.414529583347
0.422708830159
0.42851397563
0.433635814046
0.438493953972
0.443230326162
0.447744537024
0.452100472417
0.456384635633
0.460462759637
0.464489224814
0.468335518281
0.472152855441
0.475796681985
0.479426875199
0.482895907779
0.486356937249
0.489744977138
0.492974769067
0.496210002637
0.499291031235
0.502379359281
0.505383237573
0.508218234705
0.51105280551
0.513796607305
0.516364820039
0.518914946899
0.521360133588
0.523604279602
0.525819491378
0.527906924955
0.529861743027
0.531584557803
0.533256862163
0.534777464972
0.536142296719
0.537347694745
0.538389918399
0.53917671217
0.53989554005
0.540446336687
0.540828008582
0.541073185975
9.99867023295e-266
9.99867023295e-266
9.99867023295e-266
9.99867023295e-266
9.99867023296e-266
9.99867023296e-266
9.99867023296e-266
9.99867023296e-266
9.99867023296e-266
9.99867023296e-266
9.99867023297e-266
9.99867023297e-266
9.99867023308e-266
9.99867023914e-266
9.99867057676e-266
9.99868927279e-266
9.99968357412e-266
1.00521075363e-265
1.07338792278e-265
2.07758809175e-34
7.47081631747e-07
0.020530020232
0.200807708551
0.315026354055
0.369689760825
0.394322737377
0.406350801024
0.413520969996
0.419365820783
0.424742685024
0.429880645368
0.434891225348
0.439656305123
0.444259125739
0.448781581455
0.453090059046
0.457344424925
0.461396847519
0.465401377202
0.469233216001
0.473033587788
0.476668527291
0.480287557389
0.483742940561
0.487198922308
0.490482489851
0.493767167175
0.496972572774
0.500005287064
0.503033618392
0.505969418622
0.508721830602
0.511458864082
0.514082457613
0.516507943502
0.518902427183
0.521170324548
0.523303755545
0.525210907614
0.527069146751
0.528774329715
0.530327238912
0.531623587373
0.532856731426
0.533923281868
0.534823265426
0.535554634129
0.536117145345
0.536512051035
0.536760060018
9.99867023289e-266
9.9986702329e-266
9.9986702329e-266
9.9986702329e-266
9.9986702329e-266
9.9986702329e-266
9.9986702329e-266
9.9986702329e-266
9.99867023291e-266
9.99867023291e-266
9.99867023291e-266
9.99867023292e-266
9.99867023356e-266
9.9986702693e-266
9.99867227004e-266
9.9987808331e-266
1.00046148726e-265
1.01559780539e-265
2.26579818652e-99
5.96363333432e-20
5.69256405072e-05
0.0930611563974
0.247726013967
0.33140405396
0.369909405878
0.387907733178
0.397585858515
0.40438321189
0.410351616482
0.41598393226
0.421450272989
0.426654000532
0.431666208231
0.436502494566
0.441247514718
0.445769235886
0.450152260673
0.454474496736