/*--------------------------------*- C++ -*----------------------------------*\
| =========                 |                                                 |
| \\      /  F ield         | foam-extend: Open Source CFD                    |
|  \\    /   O peration     | Version:     4.1                                |
|   \\  /    A nd           | Web:         http://www.foam-extend.org         |
|    \\/     M anipulation  |                                                 |
\*---------------------------------------------------------------------------*/
FoamFile
{
    version     2.0;
    format      ascii;
    class       volScalarField;
    location    "0.0005";
    object      O;
}
// * * * * * * * * * * * * * * * * * * * * * * * * * * * * * * * * * * * * * //

dimensions      [0 0 0 0 0 0 0];

internalField   nonuniform List<scalar> 
8400
(
7.23199834379e-54
7.23199834383e-54
7.23199834386e-54
7.23199834389e-54
7.23199834393e-54
7.23199834396e-54
7.23199834399e-54
7.23199834402e-54
7.23199834405e-54
7.23199834408e-54
7.23199834411e-54
7.23199834414e-54
7.23199834417e-54
7.23199834419e-54
7.23199834422e-54
7.23199834425e-54
7.23199834427e-54
7.2319983443e-54
7.23199834432e-54
7.23199834448e-54
7.2319983524e-54
7.23199882785e-54
7.23202664534e-54
7.23364051859e-54
7.28795073397e-54
3.09462110888e-19
0.0612089177068
0.231879145097
0.201967081094
0.150775491215
0.116258023736
0.0991237942201
0.0919822834204
0.0893935335881
0.0885053082021
0.0881462539045
0.0879088495174
0.087702887954
0.0875062103115
0.0873114476684
0.0871387436414
0.0869390287723
0.0867343496589
0.0865230775715
0.0863030608466
0.0860727552776
0.0858309101026
0.0855761587035
0.0853068626396
0.0850233630678
0.0847257991544
0.0844378971947
0.0841123013097
0.0837753719302
0.0834287663729
0.0830736679672
0.0827132541843
0.082350025483
0.08198985753
0.0816363450903
0.0812907473315
0.0809857095727
0.0806755564111
0.0803924006112
0.080140693163
0.0799238182275
0.0797450194475
0.0796070152294
0.0795120195094
0.0793757036105
7.23199833524e-54
7.23199833525e-54
7.23199833527e-54
7.23199833528e-54
7.23199833529e-54
7.23199833531e-54
7.23199833532e-54
7.23199833533e-54
7.23199833534e-54
7.23199833536e-54
7.23199833537e-54
7.23199833538e-54
7.23199833539e-54
7.2319983354e-54
7.23199833541e-54
7.23199833542e-54
7.23199833544e-54
7.23199833545e-54
7.23199833547e-54
7.23199833626e-54
7.23199838309e-54
7.23200118865e-54
7.23216119727e-54
7.24147369126e-54
7.40012616162e-54
5.53826397709e-11
0.230022319704
0.230208262708
0.17902878464
0.132694865505
0.105896299464
0.0938808999537
0.0892220937345
0.0876846170543
0.0872132758988
0.0869551527077
0.0867667081957
0.0865816341157
0.0863915025566
0.0861945987373
0.0859897218147
0.085775873876
0.0855514020645
0.0853164400264
0.0850707723548
0.0848132146499
0.0845429181493
0.0842592498892
0.0839611606176
0.0836491999991
0.0833252417576
0.0829889326012
0.0826406572357
0.0822835426549
0.0819190713861
0.081548552339
0.081177296137
0.0808086957116
0.0804452784602
0.0801122011362
0.0797711228323
0.0794471545537
0.0791458779856
0.0788729026723
0.0786314287147
0.078423788628
0.0782533791609
0.0781224907594
0.0780329417557
0.0779214065048
7.23199833159e-54
7.2319983316e-54
7.23199833161e-54
7.23199833161e-54
7.23199833162e-54
7.23199833163e-54
7.23199833164e-54
7.23199833164e-54
7.23199833165e-54
7.23199833166e-54
7.23199833167e-54
7.23199833167e-54
7.23199833168e-54
7.23199833169e-54
7.2319983317e-54
7.2319983317e-54
7.23199833171e-54
7.23199833172e-54
7.23199833179e-54
7.23199833544e-54
7.23199854929e-54
7.23201102044e-54
7.23270396958e-54
7.27124361281e-54
4.56037489198e-21
0.0113876733492
0.231669544714
0.210159648156
0.156889972394
0.118493920702
0.0989292700668
0.0907099557599
0.0878258558604
0.0869453183501
0.0866330003705
0.0864570833832
0.0862972731355
0.0861338582876
0.0859619587902
0.0857799848767
0.0855864480279
0.0853813237368
0.0851642943847
0.0849347642538
0.0846918192701
0.0844349470363
0.0841638451347
0.0838774566261
0.0835772138533
0.0832640153186
0.0829372398457
0.0825980542245
0.082249883961
0.0818933033544
0.0815298788418
0.0811643057443
0.0807994071189
0.0804383264184
0.0800837175675
0.0797396065635
0.0794114296266
0.0791014817001
0.0788367569409
0.0785773547763
0.0783481172343
0.0781519895854
0.0779917562861
0.0778695643014
0.077786710641
0.0776916026482
7.23199832958e-54
7.23199832959e-54
7.23199832959e-54
7.2319983296e-54
7.2319983296e-54
7.23199832961e-54
7.23199832961e-54
7.23199832962e-54
7.23199832963e-54
7.23199832963e-54
7.23199832964e-54
7.23199832964e-54
7.23199832965e-54
7.23199832965e-54
7.23199832966e-54
7.23199832966e-54
7.23199832967e-54
7.23199832968e-54
7.23199832998e-54
7.23199834761e-54
7.23199940066e-54
7.23205986885e-54
7.23558059657e-54
7.31614123245e-54
8.79606277238e-19
0.161691741412
0.232093526783
0.190545988175
0.140739169766
0.109676321662
0.0952280058362
0.0894448935605
0.0875496892803
0.0869716686683
0.0867102738983
0.0865320577512
0.0863605855592
0.086185165529
0.0860022048068
0.0858101742581
0.0856070493761
0.0853926420197
0.0851664590883
0.084927859856
0.0846757854811
0.0844096962282
0.0841293602232
0.0838340254121
0.083525264035
0.0832039454408
0.082869430364
0.0825235685166
0.0821701355304
0.0818095583418
0.081443972582
0.0810780334363
0.0807137619568
0.0803541954874
0.0800247767328
0.0796863998131
0.0793634149759
0.079060744428
0.0787825032276
0.0785312494834
0.0783095557483
0.0781205506666
0.0779666565374
0.0778496301368
0.0777704565011
0.0776838293691
7.23199832834e-54
7.23199832834e-54
7.23199832835e-54
7.23199832835e-54
7.23199832835e-54
7.23199832836e-54
7.23199832836e-54
7.23199832837e-54
7.23199832837e-54
7.23199832838e-54
7.23199832838e-54
7.23199832838e-54
7.23199832839e-54
7.23199832839e-54
7.23199832839e-54
7.2319983284e-54
7.2319983284e-54
7.23199832842e-54
7.2319983295e-54
7.23199839361e-54
7.2320022243e-54
7.23222129193e-54
7.24503585586e-54
7.44521709858e-54
5.09499697496e-08
0.230755569424
0.227009385185
0.174441834463
0.129645285912
0.104461233072
0.0933839295151
0.0891905925886
0.0878694791103
0.0874492599989
0.0871983393137
0.0870018913192
0.0868061398724
0.0866043590219
0.0863952766093
0.0861781758743
0.085951821595
0.085714511637
0.0854651992394
0.0852040608881
0.0849309667427
0.0846449892652
0.0843455889183
0.0840325001468
0.0837055920566
0.0833671048514
0.0830177976117
0.0826579256945
0.0822914811833
0.081919640725
0.0815659881562
0.0811902591916
0.0808179882384
0.0804545919881
0.0801020134965
0.0797627965833
0.0794392561092
0.079136196148
0.0788589302225
0.0786098379689
0.0783904903244
0.0782037260033
0.0780516767738
0.0779362551021
0.0778582282874
0.0777754299857
7.23199832751e-54
7.23199832751e-54
7.23199832751e-54
7.23199832752e-54
7.23199832752e-54
7.23199832752e-54
7.23199832753e-54
7.23199832753e-54
7.23199832753e-54
7.23199832754e-54
7.23199832754e-54
7.23199832754e-54
7.23199832755e-54
7.23199832755e-54
7.23199832755e-54
7.23199832756e-54
7.23199832756e-54
7.23199832761e-54
7.23199833043e-54
7.23199849659e-54
7.23200828071e-54
7.23255791146e-54
7.26368216505e-54
7.65126580943e-54
0.00194176807859
0.231538048956
0.214663645419
0.161798767615
0.122160649289
0.101578938967
0.0928049325433
0.0896414923934
0.0886375300674
0.0882592085469
0.0879881816777
0.087759781388
0.0875308185928
0.0872970336862
0.0870568838897
0.0868084918794
0.0865502177399
0.0862822831152
0.0860043604479
0.085714856298
0.0854123769358
0.085098158421
0.0847723674705
0.0844342090156
0.0840842093354
0.0837213818773
0.0833706403501
0.0829912949461
0.0826064474927
0.0822170187752
0.0818257094482
0.0814374342454
0.0810535036464
0.0806784093371
0.0803165466203
0.0799697458558
0.0796406171477
0.0793545424639
0.0790730269186
0.0788209442855
0.0786002799012
0.0784124533701
0.0782594174044
0.078143144416
0.0780646346295
0.0779840965987
7.23199832692e-54
7.23199832692e-54
7.23199832693e-54
7.23199832693e-54
7.23199832693e-54
7.23199832693e-54
7.23199832694e-54
7.23199832694e-54
7.23199832694e-54
7.23199832695e-54
7.23199832695e-54
7.23199832695e-54
7.23199832695e-54
7.23199832696e-54
7.23199832696e-54
7.23199832696e-54
7.23199832697e-54
7.23199832708e-54
7.23199833375e-54
7.23199874057e-54
7.23202294496e-54
7.23344058251e-54
7.28554411715e-54
2.52215623389e-19
0.0515874148237
0.231852283223
0.203131468482
0.151803828352
0.117123790379
0.100068146413
0.0930355495431
0.0905208181329
0.0897072080894
0.0893346156624
0.089050650759
0.0887588609788
0.0884905338256
0.0882177719208
0.0879394211806
0.0876528465187
0.0873585257462
0.0870558570963
0.0867429237544
0.0864185616875
0.0860835226369
0.0857586497825
0.0854011293227
0.0850325439932
0.0846525130565
0.084264098752
0.0838666358376
0.0834620733309
0.0830542256887
0.0826442574658
0.0822341297197
0.0818257422876
0.0814249473622
0.0810581994761
0.0806813707168
0.0803227111341
0.079983500595
0.0796673328952
0.0793791831558
0.0791215424449
0.0788962501873
0.0787050947033
0.0785496886667
0.0784314277939
0.0783511486465
0.0782708832527
7.23199832649e-54
7.23199832649e-54
7.23199832649e-54
7.2319983265e-54
7.2319983265e-54
7.2319983265e-54
7.2319983265e-54
7.23199832651e-54
7.23199832651e-54
7.23199832651e-54
7.23199832651e-54
7.23199832652e-54
7.23199832652e-54
7.23199832652e-54
7.23199832652e-54
7.23199832652e-54
7.23199832653e-54
7.23199832682e-54
7.23199834415e-54
7.23199937903e-54
7.23205887168e-54
7.23551886923e-54
7.31588485298e-54
8.54861725936e-19
0.156228902155
0.232078368384
0.19234514876
0.143908690078
0.113662353074
0.0994910204931
0.093736274045
0.0917433168314
0.0910271362104
0.0906351883091
0.0903046079088
0.0899865812148
0.0896709788986
0.0893530367564
0.0890311606367
0.0887025936847
0.0883672607665
0.0880250692191
0.0876732697842
0.0873116791983
0.0869410926324
0.0865592435395
0.0861668603778
0.0857657927111
0.0853554362098
0.0849361266689
0.0845092608524
0.0840780279467
0.0836647593012
0.0832298056538
0.0827972410661
0.0823688318046
0.0819501037441
0.0815429656854
0.0811506444453
0.0807755967733
0.0804237418995
0.0800975513319
0.079822232566
0.0795549591244
0.0793226543357
0.0791258867264
0.0789660564312
0.0788443710971
0.0787617040934
0.0786811577694
7.23199832616e-54
7.23199832616e-54
7.23199832616e-54
7.23199832617e-54
7.23199832617e-54
7.23199832617e-54
7.23199832617e-54
7.23199832617e-54
7.23199832618e-54
7.23199832618e-54
7.23199832618e-54
7.23199832618e-54
7.23199832618e-54
7.23199832619e-54
7.23199832619e-54
7.23199832619e-54
7.2319983262e-54
7.23199832688e-54
7.23199836767e-54
7.23200083877e-54
7.23214380611e-54
7.24053467662e-54
7.38886839237e-54
3.73905468036e-11
0.229458625274
0.231288793453
0.182452411933
0.137504274406
0.11133600531
0.0994768730687
0.0948178572424
0.0931928258134
0.0925331279665
0.0921140216523
0.0917388943028
0.0913711882613
0.0910050879392
0.0906389237667
0.0902683828505
0.0898941335352
0.089515374435
0.0891301771188
0.0887366124256
0.0883344675251
0.0879247432964
0.0875045959213
0.0870758543409
0.0866383280932
0.0862147898681
0.0857630005005
0.0853050854511
0.0848435176528
0.0843810804916
0.0839188533517
0.083462391956
0.0830128051598
0.0825712372044
0.0821657132774
0.0817549193034
0.081364022926
0.0809972934897
0.0806583188905
0.0803495081783
0.0800735800731
0.0798323421086
0.0796279403765
0.0794621958046
0.0793365836735
0.079251624916
0.0791712659397
7.2319983259e-54
7.2319983259e-54
7.2319983259e-54
7.23199832591e-54
7.23199832591e-54
7.23199832591e-54
7.23199832591e-54
7.23199832591e-54
7.23199832592e-54
7.23199832592e-54
7.23199832592e-54
7.23199832592e-54
7.23199832592e-54
7.23199832592e-54
7.23199832593e-54
7.23199832593e-54
7.23199832596e-54
7.23199832753e-54
7.23199842086e-54
7.2320039589e-54
7.23231755168e-54
7.25034913469e-54
7.50729624612e-54
1.47667696095e-06
0.231115252852
0.224185415092
0.173489471951
0.132429877424
0.109995753473
0.0999804971181
0.0961707478214
0.0948027184769
0.0941959543538
0.0937442484016
0.0933244131174
0.0929080733027
0.0924927790885
0.0920769071805
0.0916587435514
0.0912356644843
0.0908092147133
0.0903772221576
0.089938235916
0.089493105042
0.0890619937046
0.0886020122971
0.0881340820415
0.0876582449464
0.0871772693939
0.0866897052908
0.086200041368
0.0857083888074
0.0852149968238
0.0847479906269
0.0842640301133
0.083788201687
0.0833250524181
0.0828765816776
0.0824460037858
0.082038227208
0.0816568203961
0.0813270331231
0.0810048821986
0.0807162665521
0.0804646830385
0.080253124945
0.0800820874692
0.0799524549968
0.0798646803106
0.0797840197568
7.23199832569e-54
7.23199832569e-54
7.23199832569e-54
7.2319983257e-54
7.2319983257e-54
7.2319983257e-54
7.2319983257e-54
7.2319983257e-54
7.23199832571e-54
7.23199832571e-54
7.23199832571e-54
7.23199832571e-54
7.23199832571e-54
7.23199832571e-54
7.23199832572e-54
7.23199832572e-54
7.23199832577e-54
7.231998329e-54
7.23199851751e-54
7.23200950878e-54
7.2326211662e-54
7.26676808306e-54
7.68647218994e-54
0.00321100857657
0.23155413729
0.215388755848
0.165222604853
0.128450792588
0.109287508861
0.100972283633
0.0978302907858
0.0966435614763
0.0960295865939
0.095529451475
0.0950548327532
0.0945861979404
0.0941179609843
0.0936491622199
0.0931798209635
0.0927063683787
0.092252323589
0.0917722575699
0.0912866231141
0.0907959241373
0.0902997029284
0.0897970003452
0.089286882513
0.0887727508853
0.0882537582335
0.0877522326547
0.0872276952081
0.0867016132432
0.0861784662966
0.0856587017792
0.0851473061192
0.0846466781101
0.0841821758304
0.0837100232644
0.0832603897303
0.0828351954213
0.082436757843
0.0820678739417
0.0817330705594
0.0814343788748
0.0811735483085
0.0809765262359
0.0807981329425
0.0806640042802
0.0805732754572
0.0804920733043
7.23199832552e-54
7.23199832552e-54
7.23199832552e-54
7.23199832552e-54
7.23199832553e-54
7.23199832553e-54
7.23199832553e-54
7.23199832553e-54
7.23199832553e-54
7.23199832553e-54
7.23199832554e-54
7.23199832554e-54
7.23199832554e-54
7.23199832554e-54
7.23199832554e-54
7.23199832555e-54
7.23199832566e-54
7.23199833252e-54
7.2319987481e-54
7.23202334428e-54
7.23345164266e-54
7.28680204164e-54
2.42611938461e-19
0.0478029419813
0.231820083097
0.206224547415
0.158070628674
0.125499178286
0.109230524504
0.102348375081
0.0997296139762
0.0986576413845
0.0980132473332
0.0974581407005
0.0969232636561
0.0963938865721
0.0958691065143
0.0953667746758
0.094841187805
0.0943171372953
0.0937893643121
0.0932602975158
0.0927275226366
0.0921891821374
0.0916468939413
0.0911213659474
0.0905697083013
0.0900129884823
0.0894536079886
0.0888932846376
0.088332145082
0.0877729948249
0.0872410240337
0.0866902875965
0.0861497757455
0.085622848228
0.0851110163074
0.0846173080196
0.0841703192319
0.0837255123619
0.0833102139555
0.0829264338256
0.0825770418375
0.0822665407246
0.0819965865491
0.0817687447556
0.0815846023213
0.0814450913239
0.0813503685168
0.0812681098602
7.23199832538e-54
7.23199832538e-54
7.23199832538e-54
7.23199832538e-54
7.23199832538e-54
7.23199832538e-54
7.23199832539e-54
7.23199832539e-54
7.23199832539e-54
7.23199832539e-54
7.23199832539e-54
7.23199832539e-54
7.23199832539e-54
7.2319983254e-54
7.2319983254e-54
7.2319983254e-54
7.2319983257e-54
7.23199834341e-54
7.23199939039e-54
7.23205905633e-54
7.23548496308e-54
7.31659113042e-54
8.0454096243e-19
0.145033444447
0.232037396725
0.196742582503
0.151583526753
0.123254666208
0.109686719792
0.104023499726
0.101821808043
0.100825966566
0.100141481022
0.099519696131
0.0989372420266
0.0983445125044
0.097757264279
0.09717449911
0.0965932482232
0.0960138683727
0.0954345703807
0.0948520136418
0.0942896647637
0.0937031826997
0.0931147413433
0.0925212433495
0.0919268271174
0.0913274404185
0.0907512537885
0.09015106179
0.0895523810283
0.0889590518276
0.0883705118467
0.0877892817614
0.0872432473173
0.0866883390285
0.0861509910115
0.0856343882455
0.0851439425527
0.0846806316551
0.0842711825208
0.083871947664
0.083509789252
0.0831861495262
0.0829052669704
0.0826692457532
0.0824786234395
0.0823340232835
0.0822358339872
0.0821531652898
7.23199832526e-54
7.23199832526e-54
7.23199832526e-54
7.23199832526e-54
7.23199832526e-54
7.23199832526e-54
7.23199832526e-54
7.23199832527e-54
7.23199832527e-54
7.23199832527e-54
7.23199832527e-54
7.23199832527e-54
7.23199832527e-54
7.23199832527e-54
7.23199832527e-54
7.23199832529e-54
7.23199832601e-54
7.23199836895e-54
7.23200093155e-54
7.23214770569e-54
7.24066128354e-54
7.39171774133e-54
3.44782381537e-11
0.229131062764
0.231838284737
0.187349295065
0.145926077918
0.121781649433
0.110567860289
0.105933114699
0.104085908451
0.103124937031
0.102406766703
0.101716436539
0.101046636256
0.100386088977
0.0997353748775
0.0990887714395
0.0984480372207
0.0978306951288
0.097193361074
0.0965590643657
0.0959232574047
0.0952866796229
0.0946707861605
0.0940318151361
0.0933922425809
0.0927509372016
0.0921113724225
0.0914718017147
0.0908590975761
0.0902297450676
0.0896065524285
0.0889957627677
0.0883970474375
0.0878376834689
0.0872741767503
0.0867333843361
0.0862211007451
0.0857390458194
0.0852897814194
0.0848746259565
0.0845224689456
0.0841872083829
0.0838965415861
0.0836518475514
0.0834544539121
0.0833048198361
0.0832032512201
0.0831203136938
7.23199832515e-54
7.23199832515e-54
7.23199832515e-54
7.23199832516e-54
7.23199832516e-54
7.23199832516e-54
7.23199832516e-54
7.23199832516e-54
7.23199832516e-54
7.23199832516e-54
7.23199832516e-54
7.23199832517e-54
7.23199832517e-54
7.23199832517e-54
7.23199832517e-54
7.2319983252e-54
7.23199832709e-54
7.23199843779e-54
7.23200491425e-54
7.23236700744e-54
7.25281989141e-54
7.53748564916e-54
9.52765902647e-06
0.231144968752
0.225150017243
0.178235434847
0.141232392374
0.121002655788
0.111820294933
0.108042248565
0.10646200909
0.105530693473
0.104741750919
0.10398840338
0.103249565436
0.102524233267
0.101826984847
0.101117747943
0.100415055807
0.0997172336927
0.0990238459253
0.0983537207391
0.0976626317165
0.0969750144229
0.0962869563534
0.0956008655017
0.0949381023765
0.0942525720621
0.0935715145353
0.0928924615214
0.0922199118872
0.0915778623244
0.0909223543355
0.0902786859308
0.0896506233601
0.0890410593636
0.0884764813696
0.0879125133326
0.0873779831917
0.0868740387805
0.0864060650324
0.085976805107
0.0855874577148
0.0852659479875
0.0849644246948
0.0847107975065
0.0845063349523
0.0843513315303
0.0842458450369
0.084162206014
7.23199832506e-54
7.23199832506e-54
7.23199832506e-54
7.23199832506e-54
7.23199832507e-54
7.23199832507e-54
7.23199832507e-54
7.23199832507e-54
7.23199832507e-54
7.23199832507e-54
7.23199832507e-54
7.23199832507e-54
7.23199832508e-54
7.23199832508e-54
7.23199832508e-54
7.23199832516e-54
7.23199832958e-54
7.2319985833e-54
7.23201303401e-54
7.23279891282e-54
7.27509620684e-54
1.76922451469e-20
0.0111364008924
0.231613579487
0.215512714783
0.169888323647
0.13769607751
0.120874849208
0.113459566434
0.110370394809
0.108967071134
0.108014014304
0.10716067909
0.10633969734
0.105553330765
0.104759781943
0.103976861539
0.103203393083
0.102438894523
0.101703039288
0.100948674086
0.100202540985
0.0994579231576
0.0987400954079
0.0980013006778
0.0972657076112
0.096533553187
0.0958274073266
0.0951024605767
0.0943856976336
0.0936737737383
0.0929731467148
0.0923070371868
0.0916326032765
0.0909757312647
0.0903378211091
0.089724462255
0.0891629625767
0.088606007949
0.088082816704
0.0875980866099
0.0871530909478
0.0867496792807
0.0864163164864
0.0861044641039
0.0858422968995
0.0856305325125
0.0854700542908
0.085360975471
0.0852768902572
7.23199832498e-54
7.23199832498e-54
7.23199832498e-54
7.23199832499e-54
7.23199832499e-54
7.23199832499e-54
7.23199832499e-54
7.23199832499e-54
7.23199832499e-54
7.23199832499e-54
7.23199832499e-54
7.23199832499e-54
7.231998325e-54
7.231998325e-54
7.231998325e-54
7.23199832523e-54
7.23199833858e-54
7.23199912105e-54
7.23204360012e-54
7.23456619303e-54
7.30507486374e-54
5.22913685821e-19
0.0932893877397
0.231904135366
0.204973035358
0.162418285581
0.134945829847
0.121412170999
0.115440140202
0.112912339282
0.111590931704
0.110589237101
0.109663188456
0.108786407744
0.107906938556
0.107042440141
0.106213654244
0.105375699756
0.10454958098
0.103730844462
0.102942690576
0.102137672636
0.101340606234
0.100545772378
0.0997812483531
0.0989953535238
0.0982175395822
0.0974430061654
0.0967006040607
0.0959414873035
0.0951934537856
0.0944557169901
0.0937575099018
0.093051440578
0.0923652233592
0.0917007859792
0.0910628883779
0.0904786479323
0.089901235495
0.089360407353
0.0888574796521
0.0883965787279
0.0879800382139
0.0876371448346
0.0873153819003
0.087045078112
0.0868264407838
0.0866601285605
0.0865470967552
0.0864622115826
7.23199832491e-54
7.23199832491e-54
7.23199832491e-54
7.23199832491e-54
7.23199832492e-54
7.23199832492e-54
7.23199832492e-54
7.23199832492e-54
7.23199832492e-54
7.23199832492e-54
7.23199832492e-54
7.23199832492e-54
7.23199832493e-54
7.23199832493e-54
7.23199832494e-54
7.23199832561e-54
7.23199836467e-54
7.23200062785e-54
7.23212716605e-54
7.2393293454e-54
7.37407654126e-54
8.51456931301e-12
0.22583780853
0.232112170512
0.194199424177
0.155986563875
0.133239423583
0.122411526773
0.117675420368
0.115570038148
0.114291258512
0.113249679752
0.112248391903
0.111272788974
0.110341844469
0.109406959653
0.10848822676
0.107585391773
0.106715446759
0.105834705279
0.104965184769
0.104127054236
0.10327435317
0.102429084611
0.101591053013
0.100782349522
0.0999562162049
0.0991397608843
0.0983549136616
0.0975573686918
0.0967716740901
0.0959977537243
0.0952668926673
0.094529348169
0.0938136250166
0.0931229461515
0.0924607611822
0.0918543420513
0.0912565760428
0.0906973695783
0.0901793473979
0.0897047926931
0.0892742214681
0.0889211925591
0.0885888529145
0.0883097956189
0.0880845686034
0.0879138564246
0.0877976450951
0.0877127669591
7.23199832485e-54
7.23199832485e-54
7.23199832485e-54
7.23199832485e-54
7.23199832485e-54
7.23199832485e-54
7.23199832486e-54
7.23199832486e-54
7.23199832486e-54
7.23199832486e-54
7.23199832486e-54
7.23199832486e-54
7.23199832486e-54
7.23199832486e-54
7.2319983249e-54
7.2319983271e-54
7.23199845393e-54
7.23200575984e-54
7.23240860615e-54
7.25471914587e-54
7.561169604e-54
1.34084286826e-05
0.231131482446
0.226754845719
0.183897250793
0.150685991169
0.132317661995
0.123863078716
0.120107465383
0.11830924611
0.117053816683
0.11593115274
0.11485416091
0.113824024558
0.112797595736
0.111793374639
0.110826996775
0.109859268976
0.108903959315
0.107985133423
0.107057855621
0.106139851877
0.105254379196
0.104357570431
0.103467780106
0.102611797729
0.101742466499
0.100882564023
0.100058634372
0.0992217396566
0.0983984181241
0.0975919491398
0.0968286744323
0.0960614268096
0.0953189881355
0.0946010943593
0.0939413472043
0.0932873795978
0.0926708949712
0.092093720282
0.0915581277718
0.091068645448
0.0906562826242
0.0902642892544
0.0899250217982
0.0896379749073
0.0894059704098
0.0892299800737
0.0891099162956
0.0890243712693
7.23199832479e-54
7.23199832479e-54
7.2319983248e-54
7.2319983248e-54
7.2319983248e-54
7.2319983248e-54
7.2319983248e-54
7.2319983248e-54
7.2319983248e-54
7.2319983248e-54
7.2319983248e-54
7.23199832481e-54
7.23199832481e-54
7.23199832481e-54
7.23199832492e-54
7.23199833129e-54
7.23199869786e-54
7.23201988158e-54
7.23321828457e-54
7.28570906919e-54
1.45321173913e-19
0.0270905010732
0.231682427226
0.215466281624
0.174621095422
0.146703537217
0.132313908546
0.125706034505
0.122743907284
0.121103742771
0.119825094908
0.118634892382
0.117503382431
0.116378981069
0.115301782953
0.114228253077
0.113195700841
0.112163705275
0.111145916212
0.110169767343
0.109182852109
0.108209229713
0.107272676968
0.106323328372
0.105386328657
0.104483786625
0.103568526285
0.10266502079
0.101801967831
0.100928067841
0.100069592283
0.0992296155799
0.0984378007794
0.0976401808872
0.0968706337033
0.0961301628013
0.0954481171254
0.0947739769012
0.0941388972174
0.0935446657289
0.092993007995
0.0925190385804
0.0920648825007
0.0916632410262
0.0913150964896
0.0910221153357
0.0907850053726
0.0906044094818
0.0904806193679
0.0903945055941
7.23199832474e-54
7.23199832474e-54
7.23199832475e-54
7.23199832475e-54
7.23199832475e-54
7.23199832475e-54
7.23199832475e-54
7.23199832475e-54
7.23199832475e-54
7.23199832475e-54
7.23199832475e-54
7.23199832475e-54
7.23199832476e-54
7.23199832476e-54
7.23199832524e-54
7.23199835228e-54
7.23199989552e-54
7.23208490123e-54
7.23678338063e-54
7.33782375013e-54
1.02587219056e-18
0.166745070311
0.232008798149
0.203333430518
0.1666407105
0.144118243813
0.133054466689
0.127944136048
0.125496318818
0.123945400369
0.12263302611
0.121369117066
0.120163250761
0.118968934081
0.117801547792
0.116679976909
0.115561715508
0.114486763168
0.113408211812
0.112373168208
0.111330660977
0.110304768892
0.109316016425
0.108317777995
0.107331956791
0.106385936973
0.105427987698
0.104484612036
0.10358258898
0.102671007322
0.101779575272
0.100934731486
0.100084293363
0.0992620715423
0.0984674005362
0.0977303004971
0.096999676552
0.0963070614243
0.0956541050706
0.0950736469215
0.0945094290937
0.0939939567315
0.0935296526851
0.0931184780037
0.0927618768412
0.0924601209901
0.0922475746723
0.0920612672342
0.09193363022
0.0918466914954
7.2319983247e-54
7.2319983247e-54
7.2319983247e-54
7.2319983247e-54
7.2319983247e-54
7.2319983247e-54
7.2319983247e-54
7.23199832471e-54
7.23199832471e-54
7.23199832471e-54
7.23199832471e-54
7.23199832471e-54
7.23199832471e-54
7.23199832474e-54
7.23199832661e-54
7.23199843284e-54
7.23200445723e-54
7.23233286093e-54
7.25032245028e-54
7.51460359451e-54
1.99153170725e-07
0.230816566547
0.23039269868
0.191493314996
0.16033874228
0.14272718273
0.134351015872
0.130419614638
0.128321257125
0.12680982195
0.125417299899
0.124098940567
0.122800485569
0.121553846525
0.120319962563
0.11913353693
0.117952429021
0.116816437292
0.115681369061
0.114588624872
0.113492347659
0.11241165028
0.111375368161
0.110328790438
0.109299350691
0.108309890314
0.107311825212
0.106355272037
0.105391823081
0.104447328518
0.103520449877
0.102645316988
0.101768550732
0.10091872872
0.100129079464
0.0993432169112
0.0985930806602
0.0978811216982
0.0972430940155
0.0966184020176
0.0960420601449
0.0955157805798
0.0950396878795
0.0946188467095
0.0942858047807
0.09397847991
0.0937300141665
0.0935400295195
0.0934088151488
0.093321318628
7.23199832466e-54
7.23199832466e-54
7.23199832466e-54
7.23199832466e-54
7.23199832466e-54
7.23199832466e-54
7.23199832466e-54
7.23199832466e-54
7.23199832466e-54
7.23199832467e-54
7.23199832467e-54
7.23199832467e-54
7.23199832467e-54
7.2319983248e-54
7.23199833183e-54
7.23199872738e-54
7.23202114247e-54
7.23327051028e-54
7.28779586354e-54
1.40085818159e-19
0.024719207636
0.231639854197
0.218585355308
0.181179223835
0.155768067018
0.142399598664
0.136105635898
0.133028930341
0.131175292756
0.129629905858
0.128193084177
0.126785103572
0.125437665273
0.124123925709
0.122824434351
0.121576310195
0.120336075197
0.119141857121
0.117950784803
0.116804879478
0.115656106341
0.114528435731
0.113443914028
0.112350442142
0.111301776562
0.110246309427
0.109209724703
0.108218989465
0.107219716068
0.106241857685
0.105316315097
0.104384957587
0.103481594537
0.102637236196
0.101796190857
0.100990281295
0.100222522478
0.09952527572
0.0988404640223
0.098202871554
0.0976152822355
0.097110382645
0.096625375223
0.0961965904707
0.0958265863495
0.0955145168287
0.09526134099
0.0950671792442
0.0949324980464
0.094844417172
7.23199832462e-54
7.23199832462e-54
7.23199832462e-54
7.23199832462e-54
7.23199832462e-54
7.23199832462e-54
7.23199832463e-54
7.23199832463e-54
7.23199832463e-54
7.23199832463e-54
7.23199832463e-54
7.23199832463e-54
7.23199832464e-54
7.23199832532e-54
7.23199836316e-54
7.23200047835e-54
7.23211471738e-54
7.2383078487e-54
7.36035693157e-54
1.31344635061e-18
0.196456676906
0.232020592412
0.205185720229
0.172567498203
0.152845414232
0.143037439497
0.138298840958
0.135791839702
0.134013912613
0.132438952208
0.130934781607
0.129458266509
0.128041751678
0.126665807438
0.125302666611
0.12399562551
0.122697114554
0.121449878909
0.120204899332
0.119009524162
0.11781227952
0.116662180192
0.115508800688
0.114374608768
0.113287136463
0.112192957616
0.111145339215
0.110091128557
0.109060200255
0.108081905015
0.107100008787
0.106144918556
0.105247845699
0.104352906146
0.103492358866
0.102699542341
0.101914457176
0.101172089534
0.100475060171
0.0998587139453
0.0992593542009
0.0987131201536
0.0982217823145
0.097787263032
0.0974109012744
0.09712683009
0.0968667354727
0.0966676176512
0.0965296437228
0.0964408174827
7.23199832459e-54
7.23199832459e-54
7.23199832459e-54
7.23199832459e-54
7.23199832459e-54
7.23199832459e-54
7.23199832459e-54
7.23199832459e-54
7.23199832459e-54
7.23199832459e-54
7.23199832459e-54
7.2319983246e-54
7.23199832466e-54
7.23199832808e-54
7.23199851875e-54
7.23200907732e-54
7.23257060834e-54
7.26217700588e-54
7.64720711234e-54
0.000131138555195
0.231189451965
0.228415652192
0.19279135749
0.166117212439
0.151462675993
0.144325224474
0.140734196119
0.138580464267
0.136819875208
0.135189476328
0.133619583785
0.13207810261
0.130601078964
0.129164391288
0.127744198135
0.12638156823
0.125027100104
0.123728913323
0.12243640062
0.121192514702
0.119951631298
0.118757803304
0.117563183847
0.116416966941
0.11526411577
0.114163014191
0.113056510893
0.111970995231
0.110940171378
0.109905300537
0.108898039181
0.107949187563
0.107001277004
0.106087571242
0.105240687701
0.10440051477
0.103602516715
0.102849357006
0.102174773788
0.101514835211
0.100907938498
0.100353656778
0.0998905677972
0.0994489544885
0.0990665343323
0.0987436142016
0.0984809797419
0.0982791257498
0.0981377439943
0.0980488484497
7.23199832455e-54
7.23199832455e-54
7.23199832456e-54
7.23199832456e-54
7.23199832456e-54
7.23199832456e-54
7.23199832456e-54
7.23199832456e-54
7.23199832456e-54
7.23199832456e-54
7.23199832456e-54
7.23199832457e-54
7.23199832493e-54
7.23199834511e-54
7.23199947503e-54
7.23206078595e-54
7.23535555583e-54
7.32083781121e-54
6.09156117219e-19
0.0946449657373
0.231820367082
0.214618156284
0.182396871676
0.161877375382
0.151355519974
0.146159340703
0.143317943217
0.14131639487
0.139548296318
0.137864092755
0.136215578472
0.134634422913
0.133099717181
0.131608768255
0.130134632061