/*--------------------------------*- C++ -*----------------------------------*\
| =========                 |                                                 |
| \\      /  F ield         | foam-extend: Open Source CFD                    |
|  \\    /   O peration     | Version:     4.1                                |
|   \\  /    A nd           | Web:         http://www.foam-extend.org         |
|    \\/     M anipulation  |                                                 |
\*---------------------------------------------------------------------------*/
FoamFile
{
    version     2.0;
    format      ascii;
    class       volScalarField;
    location    "0.0005";
    object      O2;
}
// * * * * * * * * * * * * * * * * * * * * * * * * * * * * * * * * * * * * * //

dimensions      [0 0 0 0 0 0 0];

internalField   nonuniform List<scalar> 
8400
(
0.232918
0.232918
0.232918
0.232918
0.232918
0.232918
0.232918
0.232918
0.232918
0.232918
0.232918
0.232918
0.232918
0.232918
0.232918
0.232918
0.232918
0.232918
0.232918
0.232918
0.232918
0.232918
0.232918
0.232918
0.232918
0.232917819413
0.15866333073
1.14789174906e-05
1.792400876e-07
8.08222806849e-08
5.43334705879e-08
4.58095073099e-08
4.3150583064e-08
4.21633059748e-08
4.16452425967e-08
4.13049213277e-08
4.10026339192e-08
4.07181332734e-08
4.04429243346e-08
4.01720091748e-08
3.99316773706e-08
3.96615444674e-08
3.93865088176e-08
3.91070378636e-08
3.88185547966e-08
3.85194321076e-08
3.82093883662e-08
3.78847900641e-08
3.75470234976e-08
3.71934705251e-08
3.68280033221e-08
3.6473966302e-08
3.60814094744e-08
3.56774012902e-08
3.5266398284e-08
3.48499105645e-08
3.44304032629e-08
3.40125349021e-08
3.36013276027e-08
3.3201073143e-08
3.28160309033e-08
3.24771616302e-08
3.21383569972e-08
3.18303157253e-08
3.15588070802e-08
3.13255604231e-08
3.11360509277e-08
3.09912286935e-08
3.08933653564e-08
3.08207392248e-08
0.232918
0.232918
0.232918
0.232918
0.232918
0.232918
0.232918
0.232918
0.232918
0.232918
0.232918
0.232918
0.232918
0.232918
0.232918
0.232918
0.232918
0.232918
0.232918
0.232918
0.232918
0.232918
0.232918
0.232918
0.232918
0.232912935743
0.000211733541327
9.54592794956e-07
1.17081605828e-07
6.42307691329e-08
4.766480586e-08
4.26843108698e-08
4.11511193899e-08
4.06028044465e-08
4.03766898861e-08
4.01625768828e-08
3.99775026434e-08
3.97847166907e-08
3.95812119572e-08
3.93685206971e-08
3.91445711579e-08
3.89076993406e-08
3.86581446841e-08
3.83935717718e-08
3.81161997406e-08
3.78230082049e-08
3.75146216475e-08
3.71895447792e-08
3.68482365865e-08
3.64900374559e-08
3.61197477481e-08
3.57347973874e-08
3.53378157575e-08
3.49324390598e-08
3.45200404621e-08
3.41037874935e-08
3.3688634051e-08
3.32778325019e-08
3.28767321017e-08
3.25104772675e-08
3.21389302409e-08
3.17896441338e-08
3.14659106937e-08
3.11754781991e-08
3.09185606444e-08
3.07001284233e-08
3.05217734776e-08
3.0385786918e-08
3.02942623138e-08
3.02304271571e-08
0.232918
0.232918
0.232918
0.232918
0.232918
0.232918
0.232918
0.232918
0.232918
0.232918
0.232918
0.232918
0.232918
0.232918
0.232918
0.232918
0.232918
0.232918
0.232918
0.232918
0.232918
0.232918
0.232918
0.232918
0.232917997363
0.213924171136
1.94762813286e-05
2.20991731991e-07
8.60218563485e-08
5.4289494149e-08
4.4182773763e-08
4.11481833445e-08
4.02543986242e-08
3.99307787722e-08
3.97525589879e-08
3.96137455209e-08
3.94667287988e-08
3.9308805207e-08
3.91361548184e-08
3.89480087429e-08
3.87445230203e-08
3.85237341025e-08
3.82868579975e-08
3.80332202268e-08
3.77611627403e-08
3.74721884783e-08
3.71640370607e-08
3.68384850756e-08
3.64953187342e-08
3.61379356131e-08
3.57650026547e-08
3.53782284838e-08
3.49831134765e-08
3.45790661958e-08
3.41694135534e-08
3.37599024414e-08
3.33525497105e-08
3.29522885676e-08
3.25618211662e-08
3.21848286327e-08
3.18293325326e-08
3.14954445859e-08
3.12114939742e-08
3.09351092179e-08
3.0692878962e-08
3.04862373704e-08
3.03190698489e-08
3.01928083718e-08
3.01078144667e-08
3.00497449792e-08
0.232918
0.232918
0.232918
0.232918
0.232918
0.232918
0.232918
0.232918
0.232918
0.232918
0.232918
0.232918
0.232918
0.232918
0.232918
0.232918
0.232918
0.232918
0.232918
0.232918
0.232918
0.232918
0.232918
0.232918
0.232917479042
0.057551032627
5.644593736e-06
1.41415374051e-07
7.05124223861e-08
4.93545973118e-08
4.29014332732e-08
4.09122720359e-08
4.02952617995e-08
4.00411031992e-08
3.98519756842e-08
3.96938691266e-08
3.9527351508e-08
3.9351680813e-08
3.91630659631e-08
3.89595999131e-08
3.87415687911e-08
3.85064558116e-08
3.82551017371e-08
3.79872549342e-08
3.77009457218e-08
3.73977168007e-08
3.7075619983e-08
3.67363783402e-08
3.63805691387e-08
3.60108930182e-08
3.56270399331e-08
3.5230403746e-08
3.48279474092e-08
3.44180880518e-08
3.4004224586e-08
3.35934757672e-08
3.31865630385e-08
3.27878192236e-08
3.24244945236e-08
3.20539316538e-08
3.17036144063e-08
3.1377043966e-08
3.1079089909e-08
3.08110797546e-08
3.05766427292e-08
3.03772183719e-08
3.02162332756e-08
3.00948358191e-08
3.00131293376e-08
2.995851756e-08
0.232918
0.232918
0.232918
0.232918
0.232918
0.232918
0.232918
0.232918
0.232918
0.232918
0.232918
0.232918
0.232918
0.232918
0.232918
0.232918
0.232918
0.232918
0.232918
0.232918
0.232918
0.232918
0.232918
0.232918
0.23288339249
9.39814231251e-05
5.53310822472e-07
1.09497036064e-07
6.21291478552e-08
4.71428619207e-08
4.26976751051e-08
4.13262668182e-08
4.08536918632e-08
4.06330232054e-08
4.04175480168e-08
4.02243057404e-08
4.00211639979e-08
3.98072036624e-08
3.95801543292e-08
3.9341511821e-08
3.90888378121e-08
3.88203987572e-08
3.85361777494e-08
3.82351475638e-08
3.79195287533e-08
3.75864918742e-08
3.72378819621e-08
3.68724767897e-08
3.64915632805e-08
3.60986257609e-08
3.56935225092e-08
3.52789056053e-08
3.4858019725e-08
3.44331482293e-08
3.40317968727e-08
3.36088064235e-08
3.31911748757e-08
3.27870952418e-08
3.2396688383e-08
3.20239676504e-08
3.16724889538e-08
3.13447677565e-08
3.10480994752e-08
3.07816132336e-08
3.05491635358e-08
3.0352086519e-08
3.01920443384e-08
3.0071608404e-08
2.99909513752e-08
2.99378692734e-08
0.232918
0.232918
0.232918
0.232918
0.232918
0.232918
0.232918
0.232918
0.232918
0.232918
0.232918
0.232918
0.232918
0.232918
0.232918
0.232918
0.232918
0.232918
0.232918
0.232918
0.232918
0.232918
0.232918
0.232918
0.227180012655
2.60167668656e-05
2.57834499075e-07
9.25707064052e-08
5.76195461992e-08
4.66370452935e-08
4.33483901819e-08
4.23100640502e-08
4.18779948653e-08
4.16128878351e-08
4.13443508853e-08
4.10999314202e-08
4.08467705326e-08
4.05838785366e-08
4.0310796077e-08
4.00244384994e-08
3.97250454369e-08
3.94109595534e-08
3.9084620187e-08
3.8742067095e-08
3.8384146423e-08
3.80111905499e-08
3.76245784712e-08
3.72243304898e-08
3.68102355598e-08
3.6384340528e-08
3.59732522182e-08
3.55311911994e-08
3.50860218152e-08
3.46381060021e-08
3.41908705534e-08
3.37509988711e-08
3.33190444889e-08
3.2899093545e-08
3.24972207694e-08
3.21153773464e-08
3.17555922917e-08
3.14456679339e-08
3.11421784757e-08
3.08728739578e-08
3.06372320555e-08
3.04381269259e-08
3.02770951916e-08
3.01549770936e-08
3.00726562105e-08
3.00188606512e-08
0.232918
0.232918
0.232918
0.232918
0.232918
0.232918
0.232918
0.232918
0.232918
0.232918
0.232918
0.232918
0.232918
0.232918
0.232918
0.232918
0.232918
0.232918
0.232918
0.232918
0.232918
0.232918
0.232918
0.232917853016
0.168840502139
1.23343280492e-05
1.84560445605e-07
8.22034210243e-08
5.53800650295e-08
4.70678742689e-08
4.45994864718e-08
4.36815039223e-08
4.32503926424e-08
4.29264394175e-08
4.26171719072e-08
4.22789730989e-08
4.19631264734e-08
4.16408371737e-08
4.13079187355e-08
4.09647006066e-08
4.0608973324e-08
4.02433838711e-08
3.98635616635e-08
3.94698862091e-08
3.90636796507e-08
3.86687844541e-08
3.82373437636e-08
3.7792640032e-08
3.73358250384e-08
3.6872606426e-08
3.64009272458e-08
3.59235016324e-08
3.5446312501e-08
3.49703406779e-08
3.44976099056e-08
3.40309865677e-08
3.35785247408e-08
3.31646280825e-08
3.27431936184e-08
3.23463173915e-08
3.19736043625e-08
3.16286680663e-08
3.13166986243e-08
3.10386214363e-08
3.0796914301e-08
3.05931974596e-08
3.04279997178e-08
3.03027761448e-08
3.02186898814e-08
3.01645773887e-08
0.232918
0.232918
0.232918
0.232918
0.232918
0.232918
0.232918
0.232918
0.232918
0.232918
0.232918
0.232918
0.232918
0.232918
0.232918
0.232918
0.232918
0.232918
0.232918
0.232918
0.232918
0.232918
0.232918
0.232917493781
0.0628125379136
6.05317314825e-06
1.48212584847e-07
7.56025395785e-08
5.44764181847e-08
4.81919516041e-08
4.62148323609e-08
4.54257543249e-08
4.49436533862e-08
4.45422466076e-08
4.41512236338e-08
4.37608065209e-08
4.33700342693e-08
4.29746027327e-08
4.25723433183e-08
4.21622010958e-08
4.17420172051e-08
4.13137194275e-08
4.08736960891e-08
4.04212274917e-08
3.99597319118e-08
3.94857389722e-08
3.90002484198e-08
3.85069346739e-08
3.80056237055e-08
3.74963554156e-08
3.69814504763e-08
3.64663174365e-08
3.59757700633e-08
3.54647367674e-08
3.49600534708e-08
3.44647437933e-08
3.3985664331e-08
3.3523764088e-08
3.30821794438e-08
3.26645018741e-08
3.22752912942e-08
3.1916443564e-08
3.16151608924e-08
3.13245434465e-08
3.10738344962e-08
3.0862229679e-08
3.06907138849e-08
3.05615487615e-08
3.04742495334e-08
3.04186995397e-08
0.232918
0.232918
0.232918
0.232918
0.232918
0.232918
0.232918
0.232918
0.232918
0.232918
0.232918
0.232918
0.232918
0.232918
0.232918
0.232918
0.232918
0.232918
0.232918
0.232918
0.232918
0.232918
0.232918
0.232914264723
0.000340381648056
1.42346121853e-06
1.26185974201e-07
7.11850263527e-08
5.45481373924e-08
4.97244544652e-08
4.81905126404e-08
4.74468935533e-08
4.69015688e-08
4.64179152831e-08
4.59416879425e-08
4.5466126282e-08
4.49898919584e-08
4.45130443079e-08
4.40318322164e-08
4.35454491696e-08
4.30533265463e-08
4.25550622709e-08
4.20468939196e-08
4.15290945247e-08
4.10044254902e-08
4.04698682565e-08
3.99274298754e-08
3.93779284614e-08
3.88484650332e-08
3.82901963314e-08
3.77286056554e-08
3.71676326629e-08
3.6610608494e-08
3.60586535851e-08
3.55191245248e-08
3.49930682399e-08
3.44821174824e-08
3.40156812001e-08
3.35492564763e-08
3.31093880059e-08
3.26994304189e-08
3.23235873135e-08
3.19837552097e-08
3.16812973901e-08
3.14187002916e-08
3.11970842833e-08
3.10175809557e-08
3.08826187922e-08
3.07915003277e-08
3.07342376644e-08
0.232918
0.232918
0.232918
0.232918
0.232918
0.232918
0.232918
0.232918
0.232918
0.232918
0.232918
0.232918
0.232918
0.232918
0.232918
0.232918
0.232918
0.232918
0.232918
0.232918
0.232918
0.232918
0.232918
0.232722952541
5.59844098861e-05
4.29217091161e-07
1.11670342704e-07
6.8576470568e-08
5.55741367282e-08
5.17367005623e-08
5.04604344515e-08
4.96975837214e-08
4.91072955641e-08
4.85339374599e-08
4.79672489068e-08
4.74002704606e-08
4.6834277493e-08
4.62684208357e-08
4.57009633166e-08
4.51302316242e-08
4.45570047366e-08
4.39787560071e-08
4.33939894109e-08
4.28053299322e-08
4.22374389573e-08
4.16368458587e-08
4.10300936351e-08
4.041824222e-08
3.98049368751e-08
3.91891104093e-08
3.85769351007e-08
3.79685063748e-08
3.73649444642e-08
3.67976429634e-08
3.62169912655e-08
3.56514705263e-08
3.51073748678e-08
3.45870870328e-08
3.40920225585e-08
3.36265816855e-08
3.3195054687e-08
3.28242617231e-08
3.24656686719e-08
3.21477044046e-08
3.18707919812e-08
3.16399278477e-08
3.14530233804e-08
3.13111280447e-08
3.12151881274e-08
3.11560341483e-08
0.232918
0.232918
0.232918
0.232918
0.232918
0.232918
0.232918
0.232918
0.232918
0.232918
0.232918
0.232918
0.232918
0.232918
0.232918
0.232918
0.232918
0.232918
0.232918
0.232918
0.232918
0.232918
0.232918
0.22482716095
2.50651603592e-05
2.70065767556e-07
1.01169436237e-07
6.73443069658e-08
5.72090779021e-08
5.42911340699e-08
5.3138279731e-08
5.23126499604e-08
5.16063640921e-08
5.09171033356e-08
5.02390208885e-08
4.95673595329e-08
4.88984990506e-08
4.82320099801e-08
4.7568200392e-08
4.69034831829e-08
4.62694359581e-08
4.5604789973e-08
4.49367094146e-08
4.42668775931e-08
4.35951519963e-08
4.29206587628e-08
4.22427945255e-08
4.15658487054e-08
4.08895573962e-08
4.0241418945e-08
3.95721564509e-08
3.89081073335e-08
3.82553860691e-08
3.76144227183e-08
3.69906360421e-08
3.63871435716e-08
3.58316324856e-08
3.52749686788e-08
3.47501930786e-08
3.42589081394e-08
3.38021264958e-08
3.33824431522e-08
3.3006231717e-08
3.26718793992e-08
3.23828207493e-08
3.2162912605e-08
3.19665861043e-08
3.18180610554e-08
3.17170353254e-08
3.16548515223e-08
0.232918
0.232918
0.232918
0.232918
0.232918
0.232918
0.232918
0.232918
0.232918
0.232918
0.232918
0.232918
0.232918
0.232918
0.232918
0.232918
0.232918
0.232918
0.232918
0.232918
0.232918
0.232918
0.232917858553
0.172892003174
1.33690745008e-05
2.0448627593e-07
9.42516660768e-08
6.73997218965e-08
5.95776980682e-08
5.73227763556e-08
5.61809467319e-08
5.52444610545e-08
5.43948822479e-08
5.35714378494e-08
5.27631343625e-08
5.19654322606e-08
5.11803019678e-08
5.04329244627e-08
4.96589878045e-08
4.88930003045e-08
4.81282524614e-08
4.73683151428e-08
4.66102767507e-08
4.58517945872e-08
4.50957859429e-08
4.43690311687e-08
4.36164524006e-08
4.28653248325e-08
4.2119493412e-08
4.13807022751e-08
4.06488093609e-08
3.99283402137e-08
3.92496942117e-08
3.8558247084e-08
3.78873804777e-08
3.72407512087e-08
3.66196846914e-08
3.60278822495e-08
3.54956997255e-08
3.49739163279e-08
3.44916246738e-08
3.40495842889e-08
3.36501701444e-08
3.3298583714e-08
3.2993433243e-08
3.27378620198e-08
3.25312299049e-08
3.2374133604e-08
3.2267263689e-08
3.22024389498e-08
0.232918
0.232918
0.232918
0.232918
0.232918
0.232918
0.232918
0.232918
0.232918
0.232918
0.232918
0.232918
0.232918
0.232918
0.232918
0.232918
0.232918
0.232918
0.232918
0.232918
0.232918
0.232918
0.232917523564
0.0736898551022
7.06463233659e-06
1.66868919215e-07
8.91992787077e-08
6.83049078835e-08
6.25678398234e-08
6.07690210531e-08
5.95637585381e-08
5.84909187466e-08
5.7481640853e-08
5.64991438064e-08
5.55710230069e-08
5.4634218714e-08
5.37134175199e-08
5.28080816195e-08
5.19141940322e-08
5.10323118706e-08
5.01598896172e-08
4.92926995247e-08
4.84630098069e-08
4.76094642238e-08
4.67623416052e-08
4.59182406582e-08
4.50835745698e-08
4.42537185827e-08
4.3463950094e-08
4.26543253604e-08
4.18562496782e-08
4.1075160669e-08
4.03106687561e-08
3.95663241387e-08
3.88739275099e-08
3.81811280602e-08
3.75178124194e-08
3.688736919e-08
3.6295049197e-08
3.57417645308e-08
3.52570217192e-08
3.47905777559e-08
3.43700583771e-08
3.39982199655e-08
3.36760938284e-08
3.34069263601e-08
3.31889763814e-08
3.30237957412e-08
3.29113371185e-08
3.28434874202e-08
0.232918
0.232918
0.232918
0.232918
0.232918
0.232918
0.232918
0.232918
0.232918
0.232918
0.232918
0.232918
0.232918
0.232918
0.232918
0.232918
0.232918
0.232918
0.232918
0.232918
0.232918
0.232918
0.232914475379
0.000427410992391
2.14213346669e-06
1.42869238735e-07
8.59286669973e-08
7.02026476117e-08
6.61085706138e-08
6.45710254227e-08
6.3290054437e-08
6.20433510936e-08
6.08837812755e-08
5.97227149972e-08
5.85985323721e-08
5.7501597649e-08
5.64328270714e-08
5.53836427834e-08
5.43574443687e-08
5.33789429585e-08
5.23828387946e-08
5.14026521705e-08
5.04326803985e-08
4.94746264032e-08
4.85573553314e-08
4.76214958854e-08
4.66972009736e-08
4.57834754984e-08
4.48849097633e-08
4.39997052496e-08
4.31613056613e-08
4.23140002698e-08
4.1486337776e-08
4.06870847282e-08
3.99152566194e-08
3.92017528539e-08
3.84944294982e-08
3.78229788034e-08
3.719343253e-08
3.66078479018e-08
3.60678872679e-08
3.55744622678e-08
3.51571760922e-08
3.47663135445e-08
3.44277618449e-08
3.41441198067e-08
3.39143879003e-08
3.37404268341e-08
3.36214999234e-08
3.35502713903e-08
0.232918
0.232918
0.232918
0.232918
0.232918
0.232918
0.232918
0.232918
0.232918
0.232918
0.232918
0.232918
0.232918
0.232918
0.232918
0.232918
0.232918
0.232918
0.232918
0.232918
0.232918
0.232918
0.23251396271
5.31520056851e-05
4.75505215439e-07
1.26552256081e-07
8.44541877852e-08
7.30447184737e-08
7.01631641963e-08
6.87044171095e-08
6.72891345306e-08
6.58843870125e-08
6.45047182064e-08
6.31615649093e-08
6.18549167813e-08
6.0591063435e-08
5.93894089179e-08
5.81865341344e-08
5.7012792414e-08
5.58623246213e-08
5.47359665747e-08
5.36603614542e-08
5.25710571766e-08
5.15014090025e-08
5.04459243683e-08
4.94090209439e-08
4.84207848431e-08
4.74167624324e-08
4.64333043767e-08
4.54676449208e-08
4.45268784283e-08
4.36401987346e-08
4.27506585577e-08
4.18893729308e-08
4.10611485796e-08
4.02694863638e-08
3.95442358678e-08
3.88316379312e-08
3.81641209713e-08
3.75421000533e-08
3.69700155296e-08
3.64498824199e-08
3.59828279486e-08
3.55988155482e-08
3.52417736073e-08
3.49433664001e-08
3.47016735437e-08
3.45175016452e-08
3.43913648611e-08
3.43162187491e-08
0.232918
0.232918
0.232918
0.232918
0.232918
0.232918
0.232918
0.232918
0.232918
0.232918
0.232918
0.232918
0.232918
0.232918
0.232918
0.232918
0.232918
0.232918
0.232918
0.232918
0.232918
0.23291798975
0.214223093436
2.18825168083e-05
2.80447029418e-07
1.15934493164e-07
8.49968941867e-08
7.68445103721e-08
7.48124862306e-08
7.3255128507e-08
7.1625718358e-08
6.99876753637e-08
6.83867473345e-08
6.68388876424e-08
6.53732136133e-08
6.39203010941e-08
6.2509010563e-08
6.11359410162e-08
5.98042369047e-08
5.85372820691e-08
5.7264177572e-08
5.60238253931e-08
5.48061425116e-08
5.36485585499e-08
5.24803809588e-08
5.13347186565e-08
5.02138973546e-08
4.91479765795e-08
4.80729939864e-08
4.70258275411e-08
4.60044911133e-08
4.50157018818e-08
4.40877814539e-08
4.31648895369e-08
4.2279625756e-08
4.14332123319e-08
4.06317218214e-08
3.99056779053e-08
3.91972146507e-08
3.85387650605e-08
3.79349134045e-08
3.73866496134e-08
3.68951744759e-08
3.64891470631e-08
3.61146362346e-08
3.57997659027e-08
3.55458536389e-08
3.5351905126e-08
3.52180434517e-08
3.51393910471e-08
0.232918
0.232918
0.232918
0.232918
0.232918
0.232918
0.232918
0.232918
0.232918
0.232918
0.232918
0.232918
0.232918
0.232918
0.232918
0.232918
0.232918
0.232918
0.232918
0.232918
0.232918
0.232917692267
0.125401487385
1.05714317674e-05
2.070205075e-07
1.09211980082e-07
8.67853018629e-08
8.16740678452e-08
8.0017141236e-08
7.82665020431e-08
7.63158262158e-08
7.43942942535e-08
7.25399449301e-08
7.0793989684e-08
6.90737160199e-08
6.74139635764e-08
6.58469432208e-08
6.42924492401e-08
6.27871983577e-08
6.13228254849e-08
5.99351744014e-08
5.85465300035e-08
5.71944953483e-08
5.58727197516e-08
5.4618185851e-08
5.33573415356e-08
5.21290516295e-08
5.09291410998e-08
4.97958985982e-08
4.86596563547e-08
4.75592463944e-08
4.64926309089e-08
4.54962382091e-08
4.4508362082e-08
4.35632375465e-08
4.26619826219e-08
4.1810392215e-08
4.10393125343e-08
4.02901655143e-08
3.95964205709e-08
3.89584441624e-08
3.837955128e-08
3.78615292991e-08
3.74364865546e-08
3.70424169061e-08
3.67116184088e-08
3.64437121211e-08
3.62393230651e-08
3.60978172056e-08
3.60138774657e-08
0.232918
0.232918
0.232918
0.232918
0.232918
0.232918
0.232918
0.232918
0.232918
0.232918
0.232918
0.232918
0.232918
0.232918
0.232918
0.232918
0.232918
0.232918
0.232918
0.232918
0.232918
0.232916379102
0.00183308237319
4.13213687955e-06
1.68585809569e-07
1.0561207354e-07
9.02928627926e-08
8.71955031819e-08
8.56465310935e-08
8.35974401566e-08
8.13107290879e-08
7.91212585687e-08
7.69885238987e-08
7.49415037681e-08
7.30193936852e-08
7.11338198088e-08
6.93190111911e-08
6.75706182605e-08
6.59150552234e-08
6.42762881148e-08
6.2689665322e-08
6.11836935401e-08
5.96861255741e-08
5.82281942238e-08
5.68131104424e-08
5.5468679534e-08
5.41260865086e-08
5.28229366915e-08
5.15910407029e-08
5.03651174806e-08
4.91785845691e-08
4.80328641859e-08
4.69658001412e-08
4.5911161569e-08
4.49037788301e-08
4.39463293495e-08
4.30430492185e-08
4.22258016213e-08
4.14342294758e-08
4.07024763026e-08
4.00323555203e-08
3.94249415131e-08
3.88799024872e-08
3.8432669196e-08
3.80179102516e-08
3.766979409e-08
3.7388931135e-08
3.71736670937e-08
3.70245160962e-08
3.69367061036e-08
0.232918
0.232918
0.232918
0.232918
0.232918
0.232918
0.232918
0.232918
0.232918
0.232918
0.232918
0.232918
0.232918
0.232918
0.232918
0.232918
0.232918
0.232918
0.232918
0.232918
0.232918
0.232411694503
5.40401702209e-05
5.7057630535e-07
1.46381415694e-07
1.04659961964e-07
9.50345826563e-08
9.33842632512e-08
9.16012754223e-08
8.91890384472e-08
8.65875828308e-08
8.40464200146e-08
8.16152076392e-08
7.9331343219e-08
7.71095282004e-08
7.49849931606e-08
7.29815439776e-08
7.10217878997e-08
6.91316700594e-08
6.7346962295e-08
6.55872470174e-08
6.38824615161e-08
6.22701785619e-08
6.06717553467e-08
5.91194078072e-08
5.7651416545e-08
5.61939722922e-08
5.47816183097e-08
5.34494833502e-08
5.21291689012e-08
5.08529165846e-08
4.96285686789e-08
4.84871747562e-08
4.73636011798e-08
4.62951556336e-08
4.52797406694e-08
4.43577959091e-08
4.34618869779e-08
4.26284413568e-08
4.18578617319e-08
4.1151135917e-08
4.05124434637e-08
3.99768800634e-08
3.94744720629e-08
3.90403799685e-08
3.86756520791e-08
3.83792587507e-08
3.8153456358e-08
3.79961313873e-08
3.79028170738e-08
0.232918
0.232918
0.232918
0.232918
0.232918
0.232918
0.232918
0.232918
0.232918
0.232918
0.232918
0.232918
0.232918
0.232918
0.232918
0.232918
0.232918
0.232918
0.232918
0.232918
0.23291791537
0.195532490324
1.85534271843e-05
2.9049198766e-07
1.33844023557e-07
1.06479839313e-07
1.01361497065e-07
1.00145262339e-07
9.79583649878e-08
9.50338604502e-08
9.20470314893e-08
8.91655155084e-08
8.64628823245e-08
8.38461987481e-08
8.13940402042e-08
7.9013646919e-08
7.67733953017e-08
7.45912039671e-08
7.24913578467e-08
7.05166708257e-08
6.85713976827e-08
6.6697379835e-08
6.49287829769e-08
6.31798924832e-08
6.14917685731e-08
5.98963993482e-08
5.83174463079e-08
5.67908682905e-08
5.53575784242e-08
5.39399002621e-08
5.25760265384e-08
5.12674382449e-08
5.0054755019e-08
4.88586846485e-08
4.77257785687e-08
4.66549753971e-08
4.56813162744e-08
4.47377657085e-08
4.38614915519e-08
4.30524432072e-08
4.23114759996e-08
4.16776200527e-08
4.10800709587e-08
4.05548307474e-08
4.01010845516e-08
3.97202595686e-08
3.9411086082e-08
3.9174188927e-08
3.90077591752e-08
3.89086329742e-08
0.232918
0.232918
0.232918
0.232918
0.232918
0.232918
0.232918
0.232918
0.232918
0.232918
0.232918
0.232918
0.232918
0.232918
0.232918
0.232918
0.232918
0.232918
0.232918
0.232918
0.232917386831
0.0526619713437
7.67492565538e-06
2.10011859096e-07
1.2754240415e-07
1.11035359978e-07
1.08911418393e-07
1.07500179956e-07
1.04579644689e-07
1.01141792391e-07
9.77717100162e-08
9.45152635371e-08
9.14713558758e-08
8.85455107986e-08
8.5762501788e-08
8.31528895876e-08
8.06254349846e-08
7.8250341316e-08
7.59344123647e-08
7.37574523753e-08
7.16243865267e-08
6.95746911897e-08
6.76420104157e-08
6.57404263746e-08
6.39068920725e-08
6.21828522026e-08
6.04802924445e-08
5.88409542853e-08
5.73024950843e-08
5.57876849242e-08
5.43348388636e-08
5.29830537167e-08
5.16521852252e-08
5.03895899044e-08
4.91925334536e-08
4.80993706731e-08
4.70376385637e-08
4.60461375078e-08
4.51269874625e-08
4.43167310043e-08
4.35429597804e-08
4.28431618616e-08
4.22188272084e-08
4.16702809659e-08
4.11961416844e-08
4.07966479059e-08
4.05095690019e-08
4.02606694329e-08
4.00849385431e-08
3.9979629169e-08
0.232918
0.232918
0.232918
0.232918
0.232918
0.232918
0.232918
0.232918
0.232918
0.232918
0.232918
0.232918
0.232918
0.232918
0.232918
0.232918
0.232918
0.232918
0.232918
0.232918
0.232807499833
8.54995570801e-05
1.08496635814e-06
1.73077633234e-07
1.2639407506e-07
1.1777093826e-07
1.17180990645e-07
1.15094703037e-07
1.11400226301e-07
1.07468210412e-07
1.03615395264e-07
1.00011644911e-07
9.65671414365e-08
9.33504743345e-08
9.02644936335e-08
8.73750496388e-08
8.45849007941e-08
8.19692212724e-08
7.94302025761e-08
7.70435022719e-08
7.47185992708e-08
7.24859130004e-08
7.03894220218e-08
6.83299057754e-08
6.63543383444e-08
6.44950444524e-08
6.26698463512e-08
6.09552226691e-08
5.92715737413e-08
5.76581225788e-08
5.61120991559e-08
5.4677762173e-08
5.32744568825e-08
5.19421131119e-08
5.07222914984e-08
4.95342670887e-08
4.8420223538e-08
4.73806312722e-08
4.64584641152e-08
4.55727760397e-08
4.47651752903e-08
4.40359446064e-08
4.33834338173e-08
4.2811354562e-08
4.23551391304e-08
4.19396898122e-08
4.1601504232e-08
4.1340827898e-08
4.11555557312e-08
4.10436495311e-08
0.232918
0.232918
0.232918
0.232918
0.232918
0.232918
0.232918
0.232918
0.232918
0.232918
0.232918
0.232918
0.232918
0.232918
0.232918
0.232918
0.232918
0.232918
0.232918
0.232917918349
0.198228063345
2.03315823316e-05
3.41355475175e-07
1.56179165074e-07
1.29628584567e-07
1.26372176296e-07
1.25868585597e-07
1.22721496982e-07
1.18352597811e-07
1.1384823258e-07
1.09594975236e-07
1.05543466546e-07
1.01775665253e-07
9.82188584966e-08
9.48158187835e-08
9.16390554922e-08
8.85810871149e-08
8.57168747194e-08
8.29481225691e-08
8.03505264959e-08
7.78240578676e-08
7.5411591899e-08
7.3145301872e-08
7.09283801375e-08
6.88488467257e-08
6.68139609749e-08
6.486391378e-08
6.30383356296e-08
6.12470933565e-08
5.95344345032e-08
5.7944150094e-08
5.6386652492e-08
5.49066803896e-08
5.3546875869e-08
5.22243288761e-08
5.0979865974e-08
4.98158623528e-08
4.87735269958e-08
4.77698019284e-08
4.68472815151e-08
4.60069102723e-08
4.52879594074e-08
4.46110679328e-08
4.40157939099e-08
4.35018060106e-08
4.30699457945e-08
4.27170789654e-08
4.24448620566e-08
4.22501590113e-08
4.21312240835e-08
0.232918
0.232918
0.232918
0.232918
0.232918
0.232918
0.232918
0.232918
0.232918
0.232918
0.232918
0.232918
0.232918
0.232918
0.232918
0.232918
0.232918
0.232918
0.232918
0.232917207396
0.0250922910537
7.29741663097e-06
2.29975504219e-07
1.49504835531e-07
1.36518810777e-07
1.36505363365e-07
1.34932202843e-07
1.30547855394e-07
1.2537298516e-07
1.20357329103e-07
1.15637530475e-07
1.1116268111e-07
1.07006219132e-07
1.03105321571e-07
9.93754923244e-08
9.59025425887e-08
9.25696325172e-08
8.94568048219e-08
8.64509452057e-08
8.36427165107e-08
8.0918873074e-08
7.83673297929e-08
7.58855922803e-08
7.35111667729e-08
7.12904806349e-08
6.91213556692e-08
6.70918499072e-08
6.51059145084e-08
6.32116143616e-08
6.14500137431e-08
5.97276144827e-08
5.80909419598e-08
5.65819231883e-08
5.51139816237e-08
5.37299497995e-08
5.24753110301e-08
5.12607755952e-08
5.01310418662e-08
4.90881078303e-08
4.81741468312e-08
4.73014869015e-08
4.65142111585e-08
4.5812450494e-08
4.51953117053e-08
4.46634760847e-08
4.42556362225e-08
4.38888305363e-08
4.36029875191e-08
4.33985861923e-08
4.32718139805e-08
0.232918
0.232918
0.232918
0.232918
0.232918
0.232918
0.232918
0.232918
0.232918
0.232918
0.232918
0.232918
0.232918
0.232918
0.232918
0.232918
0.232918
0.232918
0.232918
0.231567676488
4.85581614848e-05
7.4378853949e-07
1.89959428138e-07
1.5043845981e-07
1.46451702672e-07
1.47097534834e-07
1.43845455471e-07
1.38310344197e-07
1.32419251167e-07
1.26855478378e-07
1.21655673202e-07
1.16746963553e-07
1.12206708798e-07
1.07946150129e-07
1.03889580279e-07
1.00121246177e-07
9.65104537588e-08
9.31462757939e-08
8.99115020967e-08
8.68855800199e-08
8.39654543874e-08
8.12330290664e-08
7.85841763655e-08
7.61053033386e-08
7.36908697793e-08
7.14398842981e-08
6.92434156079e-08
6.71458268468e-08
6.51968406987e-08
6.32961705814e-08
6.14900333628e-08
5.98231191284e-08
5.81997382191e-08
5.66685433978e-08
5.52719238235e-08
5.3920353466e-08
5.26591731327e-08
5.1490303774e-08
5.04539096024e-08
4.94610091521e-08
4.85582396836e-08
4.77444355225e-08
4.70643359293e-08
4.64264614367e-08
4.58749577816e-08
4.54090560316e-08
4.50287587928e-08
4.4731340247e-08
4.45151328507e-08
4.43800218574e-08
0.232918
0.232918
0.232918
0.232918
0.232918
0.232918
0.232918
0.232918
0.232918
0.232918
0.232918
0.232918
0.232918
0.232918
0.232918
0.232918
0.232918
0.232918
0.232917639103
0.123972644955
1.29889986242e-05
3.06361963736e-07
1.75043961372e-07
1.57592165494e-07
1.58516731837e-07
1.57748407393e-07
1.5250896293e-07
1.4586228071e-07
1.39351669194e-07
1.33255103417e-07
1.27526426975e-07
1.2223984419e-07
1.17308335368e-07
1.12692915118e-07
1.08308809509e-07
1.0424205115e-07
1.00410507393e-07
9.67464767266e-08
9.33306143638e-08
9.00462096127e-08
8.69855524493e-08
8.40212230493e-08
8.12593795679e-08
7.85817600244e-08
7.60832349769e-08
7.36537373576e-08
7.134174474e-08
6.9188919353e-08
6.70947543351e-08
6.5155714748e-08
6.32672070233e-08
6.14793259207e-08
5.98398638639e-08
5.82463107243e-08
5.67505211724e-08
5.53501463566e-08
5.40943102645e-08
5.28818813959e-08
5.17651568406e-08
5.07415975935e-08
4.98571376177e-08
4.90174420842e-08
4.82701925424e-08
4.76136293052e-08
4.70443427766e-08
4.65638641268e-08
4.62156989216e-08
4.59059373727e-08
4.56798450203e-08
4.55352499445e-08
0.232918
0.232918
0.232918
0.232918
0.232918
0.232918
0.232918
0.232918
0.232918
0.232918
0.232918
0.232918
0.232918
0.232918
0.232918
0.232918
0.232918
0.232918
0.232826145059
0.000111800512038
2.64765017155e-06
2.25947407475e-07
1.73824550443e-07
1.69655184701e-07
1.71431858137e-07
1.67887792159e-07
1.60814695663e-07
1.53266151633e-07
1.46114367738e-07
1.39479734776e-07
1.33331666412e-07
1.27563496949e-07
1.22244989891e-07
1.1727842072e-07
1.1263303949e-07
1.08217207901e-07
1.04124418046e-07
1.0021244216e-07
9.65760459307e-08
9.31444932078e-08
8.98410840239e-08
8.67624900389e-08
8.37896038464e-08
8.10222506855e-08
7.83396914478e-08
7.57896673683e-08
7.34193710274e-08
7.11174788615e-08
6.89828450924e-08
6.69087358385e-08
6.49446759628e-08
6.31397120056e-08
6.13908322201e-08
5.97423722299e-08
5.82468197392e-08
5.68008105027e-08
5.54535580855e-08
5.42586244753e-08
5.31079672595e-08
5.20540256437e-08
5.10964696569e-08
5.02362192674e-08
4.95164674733e-08
4.8839468402e-08
4.82531311697e-08
4.77563142025e-08
4.73493318548e-08
4.7028272251e-08
4.67906675223e-08
4.6636002328e-08
0.232918
0.232918
0.232918
0.232918
0.232918
0.232918
0.232918
0.232918
0.232918
0.232918
0.232918
0.232918
0.232918
0.232918
0.232918
0.232918
0.232918
0.232917759486
0.159680975542
1.72330527244e-05
3.90049537863e-07
2.0147937516e-07
1.81607205746e-07
1.84215954442e-07
1.83697301245e-07
1.77225369538e-07
1.68685468829e-07
1.60341757534e-07
1.52597292075e-07
1.45444643835e-07
1.38835966373e-07
1.32708706936e-07
1.26950461402e-07
1.21645239611e-07
1.16690571433e-07
1.12055372251e-07
1.07645545458e-07
1.03562395417e-07
9.96581525522e-08
9.60303095129e-08
9.26087967878e-08
8.93142322127e-08
8.62496019455e-08
8.32894529296e-08
8.048286295e-08
7.78757195185e-08