/*--------------------------------*- C++ -*----------------------------------*\
| =========                 |                                                 |
| \\      /  F ield         | foam-extend: Open Source CFD                    |
|  \\    /   O peration     | Version:     4.1                                |
|   \\  /    A nd           | Web:         http://www.foam-extend.org         |
|    \\/     M anipulation  |                                                 |
\*---------------------------------------------------------------------------*/
FoamFile
{
    version     2.0;
    format      ascii;
    class       volScalarField;
    location    "0.0005";
    object      O2Plus;
}
// * * * * * * * * * * * * * * * * * * * * * * * * * * * * * * * * * * * * * //

dimensions      [0 0 0 0 0 0 0];

internalField   nonuniform List<scalar> 
8400
(
2.93247975206e-108
2.93247975208e-108
2.93247975209e-108
2.93247975211e-108
2.93247975213e-108
2.93247975214e-108
2.93247975216e-108
2.93247975217e-108
2.93247975218e-108
2.9324797522e-108
2.93247975221e-108
2.93247975223e-108
2.93247975224e-108
2.93247975225e-108
2.93247975226e-108
2.93247975228e-108
2.93247975229e-108
2.9324797523e-108
2.93247975232e-108
2.93247975239e-108
2.93247975616e-108
2.93247998262e-108
2.93249323212e-108
2.93326192161e-108
2.95912993332e-108
7.03347171173e-43
2.00882326899e-12
7.84483723199e-08
1.988819297e-07
2.25558231129e-07
2.33861822945e-07
2.41567576789e-07
2.47554521665e-07
2.49566400891e-07
2.49356478943e-07
2.4860485003e-07
2.47714885407e-07
2.46819271209e-07
2.45941084097e-07
2.45078028823e-07
2.44302098836e-07
2.43439712176e-07
2.42563721231e-07
2.41668872249e-07
2.40746660176e-07
2.39790472093e-07
2.38795207844e-07
2.37755304632e-07
2.3666474581e-07
2.35524758115e-07
2.34337957808e-07
2.3318344652e-07
2.31896250661e-07
2.30567034484e-07
2.29206250401e-07
2.27818562667e-07
2.2641472918e-07
2.250030362e-07
2.23605459466e-07
2.22238752877e-07
2.20914593239e-07
2.19743055788e-07
2.18566355422e-07
2.17491824095e-07
2.16538031636e-07
2.15719107806e-07
2.15049127312e-07
2.14539854135e-07
2.14199727193e-07
2.14107659073e-07
2.93247974799e-108
2.93247974799e-108
2.932479748e-108
2.93247974801e-108
2.93247974801e-108
2.93247974802e-108
2.93247974803e-108
2.93247974803e-108
2.93247974804e-108
2.93247974804e-108
2.93247974805e-108
2.93247974805e-108
2.93247974806e-108
2.93247974807e-108
2.93247974807e-108
2.93247974808e-108
2.93247974808e-108
2.93247974809e-108
2.9324797481e-108
2.93247974847e-108
2.93247977078e-108
2.93248110707e-108
2.93255731934e-108
2.93699286985e-108
3.01255920541e-108
8.07986726315e-29
7.76773438e-09
1.52588344457e-07
2.13043414475e-07
2.26988356085e-07
2.32994801695e-07
2.40473409257e-07
2.44993418453e-07
2.46282823228e-07
2.46382113535e-07
2.4597201261e-07
2.45521366982e-07
2.45016672367e-07
2.44471157421e-07
2.43887572236e-07
2.43263263978e-07
2.4259444217e-07
2.41874933783e-07
2.41104698846e-07
2.40282814555e-07
2.39404865346e-07
2.38467779932e-07
2.37469804463e-07
2.36408371237e-07
2.35285555882e-07
2.34107609559e-07
2.3287353892e-07
2.31585915659e-07
2.30258456573e-07
2.28898564839e-07
2.27510590835e-07
2.26113916103e-07
2.24721179505e-07
2.23346987568e-07
2.22081682021e-07
2.20793095201e-07
2.19569254196e-07
2.18431783422e-07
2.17400709289e-07
2.16487490824e-07
2.15703463632e-07
2.15063696228e-07
2.14577969043e-07
2.14253360965e-07
2.14141566259e-07
2.93247974625e-108
2.93247974625e-108
2.93247974626e-108
2.93247974626e-108
2.93247974626e-108
2.93247974627e-108
2.93247974627e-108
2.93247974628e-108
2.93247974628e-108
2.93247974628e-108
2.93247974629e-108
2.93247974629e-108
2.93247974629e-108
2.9324797463e-108
2.9324797463e-108
2.9324797463e-108
2.93247974631e-108
2.93247974631e-108
2.93247974634e-108
2.93247974809e-108
2.93247984994e-108
2.93248578996e-108
2.93281584235e-108
2.95117231424e-108
1.04213526435e-44
1.90838203446e-14
5.17902624742e-08
1.90084012989e-07
2.21195784209e-07
2.28484412478e-07
2.34875897677e-07
2.41138072974e-07
2.44137904032e-07
2.44806841565e-07
2.44715706227e-07
2.44464480947e-07
2.44128182784e-07
2.43737087399e-07
2.43293065885e-07
2.42794083765e-07
2.42235723441e-07
2.41618025769e-07
2.40940117929e-07
2.40200023828e-07
2.3939462837e-07
2.38522280193e-07
2.37582450156e-07
2.36572685681e-07
2.3549860062e-07
2.34364425493e-07
2.3316930389e-07
2.31918117754e-07
2.3062395371e-07
2.29290913578e-07
2.2792621538e-07
2.26548030905e-07
2.25166874686e-07
2.23795527346e-07
2.22446101206e-07
2.21136587008e-07
2.19888340065e-07
2.18712232522e-07
2.17701894044e-07
2.16716895385e-07
2.15845266882e-07
2.15102392831e-07
2.14499352543e-07
2.14042818107e-07
2.13736820367e-07
2.13622114327e-07
2.93247974529e-108
2.9324797453e-108
2.9324797453e-108
2.9324797453e-108
2.9324797453e-108
2.93247974531e-108
2.93247974531e-108
2.93247974531e-108
2.93247974531e-108
2.93247974532e-108
2.93247974532e-108
2.93247974532e-108
2.93247974532e-108
2.93247974533e-108
2.93247974533e-108
2.93247974533e-108
2.93247974533e-108
2.93247974534e-108
2.93247974548e-108
2.93247975388e-108
2.93248025545e-108
2.93250905651e-108
2.93418598276e-108
2.97255709687e-108
1.98117327597e-42
6.05984647053e-11
1.13981288366e-07
2.06333667331e-07
2.25160791473e-07
2.30816127225e-07
2.38125787338e-07
2.43227163025e-07
2.45073014901e-07
2.45303982494e-07
2.45024427549e-07
2.44679321648e-07
2.44274891977e-07
2.43824953204e-07
2.43326540085e-07
2.42775837866e-07
2.42166160934e-07
2.4149697225e-07
2.40767025155e-07
2.39974479646e-07
2.39116035133e-07
2.38190237131e-07
2.37197013139e-07
2.36134906697e-07
2.35010267102e-07
2.33827939332e-07
2.32587485446e-07
2.31296195085e-07
2.29968241877e-07
2.28605844484e-07
2.27219110146e-07
2.25827015445e-07
2.24438950856e-07
2.2306858836e-07
2.2180491177e-07
2.20511969001e-07
2.19276698742e-07
2.18120360171e-07
2.17057738058e-07
2.16097721542e-07
2.152514051e-07
2.14531814287e-07
2.13948479017e-07
2.13507053952e-07
2.13210799528e-07
2.1309467935e-07
2.9324797447e-108
2.9324797447e-108
2.9324797447e-108
2.93247974471e-108
2.93247974471e-108
2.93247974471e-108
2.93247974471e-108
2.93247974471e-108
2.93247974472e-108
2.93247974472e-108
2.93247974472e-108
2.93247974472e-108
2.93247974472e-108
2.93247974473e-108
2.93247974473e-108
2.93247974473e-108
2.93247974473e-108
2.93247974474e-108
2.93247974525e-108
2.93247977579e-108
2.93248160035e-108
2.93258594249e-108
2.93868953253e-108
3.03403606528e-108
7.11799307422e-23
1.43617219859e-08
1.63987758584e-07
2.15426761405e-07
2.27947477555e-07
2.34267830725e-07
2.41788854373e-07
2.45949317257e-07
2.47066442475e-07
2.47063014127e-07
2.46630021527e-07
2.46163511447e-07
2.45642309112e-07
2.45072474862e-07
2.44455575542e-07
2.43790522342e-07
2.43073273195e-07
2.42298034831e-07
2.41461507449e-07
2.40564632909e-07
2.39607466859e-07
2.38587238571e-07
2.37502926516e-07
2.36355545028e-07
2.35146799172e-07
2.33885971818e-07
2.32576306308e-07
2.31218292305e-07
2.29827926401e-07
2.28415395562e-07
2.27063554097e-07
2.25631832152e-07
2.24206929276e-07
2.22810679174e-07
2.21452845693e-07
2.20148047642e-07
2.18908045892e-07
2.17748954827e-07
2.16688012517e-07
2.15733236847e-07
2.14893043187e-07
2.14179430013e-07
2.13600366953e-07
2.13162389564e-07
2.12868459574e-07
2.12750044341e-07
2.9324797443e-108
2.93247974431e-108
2.93247974431e-108
2.93247974431e-108
2.93247974431e-108
2.93247974431e-108
2.93247974431e-108
2.93247974432e-108
2.93247974432e-108
2.93247974432e-108
2.93247974432e-108
2.93247974432e-108
2.93247974432e-108
2.93247974433e-108
2.93247974433e-108
2.93247974433e-108
2.93247974433e-108
2.93247974435e-108
2.9324797457e-108
2.93247982484e-108
2.93248448503e-108
2.93274627472e-108
2.94757078886e-108
3.13217727916e-108
2.02317775946e-16
4.06645780078e-08
1.85412742389e-07
2.21444002489e-07
2.31252096247e-07
2.39088781868e-07
2.46352888039e-07
2.49631375105e-07
2.50166093076e-07
2.49854230415e-07
2.49230965875e-07
2.48604332752e-07
2.47931916989e-07
2.47217461586e-07
2.46459683155e-07
2.45652960827e-07
2.44792089385e-07
2.43878708781e-07
2.42912480929e-07
2.41888255479e-07
2.40801828132e-07
2.39658008267e-07
2.38458469872e-07
2.37201579442e-07
2.35890840829e-07
2.3452728246e-07
2.33197417077e-07
2.31758089818e-07
2.30288718827e-07
2.28798799977e-07
2.27300601663e-07
2.25811830106e-07
2.24337150428e-07
2.22893082135e-07
2.21497665458e-07
2.2016186812e-07
2.18899813886e-07
2.17798593385e-07
2.16721029846e-07
2.15752801049e-07
2.14904771133e-07
2.14184375593e-07
2.13599264496e-07
2.13155742317e-07
2.12856913748e-07
2.12733409917e-07
2.93247974402e-108
2.93247974403e-108
2.93247974403e-108
2.93247974403e-108
2.93247974403e-108
2.93247974403e-108
2.93247974403e-108
2.93247974403e-108
2.93247974404e-108
2.93247974404e-108
2.93247974404e-108
2.93247974404e-108
2.93247974404e-108
2.93247974404e-108
2.93247974404e-108
2.93247974405e-108
2.93247974405e-108
2.9324797441e-108
2.93247974728e-108
2.93247994105e-108
2.93249146963e-108
2.93316669185e-108
2.95798365924e-108
5.7369842177e-43
1.17813555387e-12
7.45995048458e-08
1.98171381681e-07
2.26055797575e-07
2.35514488294e-07
2.44691043689e-07
2.51671301545e-07
2.53997131556e-07
2.54084369764e-07
2.53499367094e-07
2.52740241005e-07
2.51843789484e-07
2.50992988759e-07
2.50105826177e-07
2.49179044095e-07
2.48204053915e-07
2.47183779084e-07
2.46117521313e-07
2.44998726956e-07
2.43823148819e-07
2.42596575277e-07
2.4139222249e-07
2.40059758824e-07
2.38673129044e-07
2.37235237069e-07
2.3575871196e-07
2.34242938692e-07
2.32695692276e-07
2.31131588651e-07
2.29556016275e-07
2.27978774071e-07
2.26411462943e-07
2.24874643388e-07
2.23453168937e-07
2.22000008889e-07
2.20616925073e-07
2.19311364697e-07
2.18095701341e-07
2.16986694672e-07
2.15993377041e-07
2.15124582686e-07
2.14388907629e-07
2.13792727832e-07
2.13340343497e-07
2.13034040534e-07
2.1290490496e-07
2.93247974382e-108
2.93247974382e-108
2.93247974382e-108
2.93247974382e-108
2.93247974382e-108
2.93247974383e-108
2.93247974383e-108
2.93247974383e-108
2.93247974383e-108
2.93247974383e-108
2.93247974383e-108
2.93247974383e-108
2.93247974383e-108
2.93247974383e-108
2.93247974384e-108
2.93247974384e-108
2.93247974384e-108
2.93247974398e-108
2.93247975223e-108
2.93248024515e-108
2.93250858156e-108
2.93415658196e-108
2.97243498307e-108
1.92563796173e-42
5.20512049497e-11
1.1174170588e-07
2.07529555356e-07
2.30429149794e-07
2.40618335703e-07
2.51032835531e-07
2.57360754121e-07
2.5907057401e-07
2.58725257411e-07
2.57863328537e-07
2.56865466427e-07
2.55830210102e-07
2.54773156537e-07
2.53687897784e-07
2.52570468903e-07
2.51412670128e-07
2.50214457151e-07
2.48975789856e-07
2.47687505215e-07
2.46349817905e-07
2.44967099991e-07
2.43532206822e-07
2.42048761976e-07
2.40524522894e-07
2.38958252626e-07
2.37352161751e-07
2.35713202425e-07
2.34057410596e-07
2.32461618621e-07
2.30786897464e-07
2.29116773323e-07
2.27461773914e-07
2.25844510921e-07
2.24273340626e-07
2.2276092182e-07
2.21316732187e-07
2.19961300991e-07
2.18706226301e-07
2.17637668949e-07
2.16607503984e-07
2.15709567677e-07
2.14949930879e-07
2.14334409812e-07
2.13867565767e-07
2.13551936658e-07
2.13418454256e-07
2.93247974366e-108
2.93247974366e-108
2.93247974366e-108
2.93247974367e-108
2.93247974367e-108
2.93247974367e-108
2.93247974367e-108
2.93247974367e-108
2.93247974367e-108
2.93247974367e-108
2.93247974367e-108
2.93247974367e-108
2.93247974367e-108
2.93247974368e-108
2.93247974368e-108
2.93247974368e-108
2.93247974368e-108
2.93247974401e-108
2.93247976343e-108
2.93248094042e-108
2.93254903591e-108
2.93654561621e-108
3.00719711829e-108
5.47118176982e-29
5.5258639031e-09
1.46586987133e-07
2.15039756659e-07
2.34903575249e-07
2.46610938585e-07
2.57703978609e-07
2.63511795047e-07
2.6459722153e-07
2.63877733236e-07
2.62762683672e-07
2.61543260985e-07
2.60285767376e-07
2.59007698249e-07
2.57711193703e-07
2.56382724371e-07
2.55025775836e-07
2.53638177381e-07
2.52212729412e-07
2.50744061955e-07
2.49232123478e-07
2.47681074998e-07
2.4608249515e-07
2.44444506685e-07
2.42769825605e-07
2.41136241972e-07
2.3939669955e-07
2.37628259669e-07
2.35844430423e-07
2.34055993059e-07
2.32266749026e-07
2.30497710213e-07
2.28755583132e-07
2.27050427983e-07
2.2547850679e-07
2.23895543933e-07
2.22387009765e-07
2.20971781845e-07
2.19664177929e-07
2.18472676885e-07
2.17407519816e-07
2.16475622651e-07
2.15686128791e-07
2.15046382559e-07
2.14561484568e-07
2.14232848327e-07
2.1409076902e-07
2.93247974354e-108
2.93247974354e-108
2.93247974354e-108
2.93247974354e-108
2.93247974354e-108
2.93247974354e-108
2.93247974354e-108
2.93247974355e-108
2.93247974355e-108
2.93247974355e-108
2.93247974355e-108
2.93247974355e-108
2.93247974355e-108
2.93247974355e-108
2.93247974355e-108
2.93247974355e-108
2.93247974357e-108
2.93247974431e-108
2.93247978877e-108
2.93248242654e-108
2.93263179111e-108
2.94122025273e-108
3.06360442739e-108
4.40832934063e-22
2.16884675454e-08
1.72195177385e-07
2.21850789319e-07
2.40259158275e-07
2.53890235804e-07
2.64988442159e-07
2.6999270648e-07
2.70430846918e-07
2.6945201553e-07
2.68091696629e-07
2.66650051177e-07
2.65171010106e-07
2.63673210871e-07
2.6215727031e-07
2.60618819302e-07
2.59049538773e-07
2.57455452433e-07
2.55829231278e-07
2.54166465879e-07
2.52474036797e-07
2.50819417796e-07
2.49054266565e-07
2.47251170928e-07
2.45413488054e-07
2.43551205441e-07
2.41661050027e-07
2.3975905706e-07
2.37850528103e-07
2.35938975729e-07
2.34119401407e-07
2.32241826284e-07
2.30394659033e-07
2.28601438983e-07
2.26868663609e-07
2.25205435434e-07
2.23628342986e-07
2.22154430308e-07
2.2087214219e-07
2.19631765599e-07
2.18520465089e-07
2.17551183419e-07
2.1673360856e-07
2.16070307589e-07
2.15565698776e-07
2.15222312141e-07
2.15071777442e-07
2.93247974344e-108
2.93247974344e-108
2.93247974344e-108
2.93247974344e-108
2.93247974344e-108
2.93247974344e-108
2.93247974344e-108
2.93247974345e-108
2.93247974345e-108
2.93247974345e-108
2.93247974345e-108
2.93247974345e-108
2.93247974345e-108
2.93247974345e-108
2.93247974345e-108
2.93247974345e-108
2.93247974348e-108
2.93247974501e-108
2.9324798348e-108
2.93248506996e-108
2.93277640302e-108
2.9490406148e-108
3.14894611457e-108
5.30407292703e-16
4.23358667523e-08
1.87326192673e-07
2.28234056485e-07
2.46660606934e-07
2.61956502684e-07
2.73047534789e-07
2.77069494481e-07
2.76876511057e-07
2.75515538274e-07
2.73867347605e-07
2.72166057177e-07
2.70448360099e-07
2.6871364784e-07
2.66962816863e-07
2.65197715249e-07
2.63409258118e-07
2.61678378877e-07
2.59845231906e-07
2.57980611357e-07
2.56089382195e-07
2.54170860246e-07
2.52223036663e-07
2.50243684873e-07
2.48245560717e-07
2.46228683004e-07
2.44268123957e-07
2.42224365731e-07
2.40174808877e-07
2.38137982987e-07
2.36117188765e-07
2.34128666454e-07
2.32185673452e-07
2.30376140975e-07
2.2855030014e-07
2.26810801495e-07
2.25165045218e-07
2.23622673824e-07
2.22197396966e-07
2.20906391446e-07
2.19754980629e-07
2.1875138466e-07
2.17982806093e-07
2.17293065113e-07
2.16766938909e-07
2.16407554543e-07
2.16247862041e-07
2.93247974336e-108
2.93247974336e-108
2.93247974336e-108
2.93247974336e-108
2.93247974336e-108
2.93247974336e-108
2.93247974336e-108
2.93247974336e-108
2.93247974336e-108
2.93247974337e-108
2.93247974337e-108
2.93247974337e-108
2.93247974337e-108
2.93247974337e-108
2.93247974337e-108
2.93247974337e-108
2.93247974342e-108
2.93247974669e-108
2.93247994463e-108
2.93249165982e-108
2.93317195982e-108
2.95858280997e-108
5.5171243524e-43
9.633379369e-13
7.10730978661e-08
1.99395439123e-07
2.3513767046e-07
2.54443681551e-07
2.71094524903e-07
2.81676547276e-07
2.84585925319e-07
2.83757739012e-07
2.81993796981e-07
2.80039673641e-07
2.78054523311e-07
2.7606226979e-07
2.74075109388e-07
2.72156042479e-07
2.70145976691e-07
2.68129162912e-07
2.66090848763e-07
2.64040475365e-07
2.6197010582e-07
2.5987425434e-07
2.57760644037e-07
2.55701298065e-07
2.53547581221e-07
2.51372956553e-07
2.49188405386e-07
2.4699864527e-07
2.44803332199e-07
2.42619227851e-07
2.40533913187e-07
2.38392008547e-07
2.36290106376e-07
2.34241154215e-07
2.32251609928e-07
2.30337729543e-07
2.28596909878e-07
2.26876970976e-07
2.2527051686e-07
2.23787864489e-07
2.22439538155e-07
2.2124090364e-07
2.20197105351e-07
2.19313913808e-07
2.18597005586e-07
2.18050173832e-07
2.17674724641e-07
2.175034183e-07
2.93247974329e-108
2.93247974329e-108
2.93247974329e-108
2.93247974329e-108
2.93247974329e-108
2.93247974329e-108
2.93247974329e-108
2.9324797433e-108
2.9324797433e-108
2.9324797433e-108
2.9324797433e-108
2.9324797433e-108
2.9324797433e-108
2.9324797433e-108
2.9324797433e-108
2.9324797433e-108
2.93247974345e-108
2.93247975188e-108
2.93248025056e-108
2.93250866951e-108
2.93414043243e-108
2.97277138374e-108
1.81225016002e-42
3.79892137548e-11
1.06219697385e-07
2.10013863654e-07
2.42386144114e-07
2.63245841408e-07
2.81048651296e-07
2.90668582046e-07
2.92418725842e-07
2.90996404325e-07
2.88841603333e-07
2.86552480001e-07
2.84329453396e-07
2.82052617946e-07
2.79782329346e-07
2.77519825895e-07
2.75256506481e-07
2.72994385661e-07
2.7072737648e-07
2.6844655607e-07
2.66232043583e-07
2.63930467308e-07
2.61615846267e-07
2.59281046672e-07
2.56942582744e-07
2.54590749636e-07
2.52321887385e-07
2.49971672813e-07
2.47625360803e-07
2.45300030727e-07
2.42997644041e-07
2.40732312901e-07
2.38596935807e-07
2.36441739512e-07
2.34354447624e-07
2.32348554777e-07
2.30444490331e-07
2.28650397929e-07
2.2705632852e-07
2.25516244059e-07
2.24118848239e-07
2.22869731383e-07
2.21782586795e-07
2.20865067044e-07
2.20119827131e-07
2.19550188243e-07
2.19158255258e-07
2.18977671682e-07
2.93247974323e-108
2.93247974323e-108
2.93247974323e-108
2.93247974323e-108
2.93247974323e-108
2.93247974324e-108
2.93247974324e-108
2.93247974324e-108
2.93247974324e-108
2.93247974324e-108
2.93247974324e-108
2.93247974324e-108
2.93247974324e-108
2.93247974324e-108
2.93247974324e-108
2.93247974325e-108
2.93247974359e-108
2.93247976404e-108
2.93248098461e-108
2.93255089329e-108
2.93660591922e-108
3.00855426614e-108
5.04054370219e-29
4.67611083755e-09
1.41666643178e-07
2.19922892669e-07
2.50444341766e-07
2.73374071647e-07
2.91576879073e-07
2.9980222192e-07
3.0049677362e-07
2.98497715895e-07
2.96022265244e-07
2.93390141307e-07
2.90778480862e-07
2.88190616285e-07
2.85632748668e-07
2.83086663807e-07
2.80561302146e-07
2.78114782254e-07
2.75596775136e-07
2.73084795849e-07
2.70566825168e-07
2.68048544575e-07
2.65601520529e-07
2.63075621026e-07
2.60545982726e-07
2.58014565679e-07
2.5549346376e-07
2.52980914226e-07
2.50564681145e-07
2.48097469002e-07
2.45656248395e-07
2.43268546432e-07
2.40936970424e-07
2.38753132267e-07
2.36568216752e-07
2.34470064314e-07
2.32482959603e-07
2.30612557426e-07
2.28870981403e-07
2.27268618932e-07
2.25900939471e-07
2.24610449842e-07
2.23486113873e-07
2.2253414852e-07
2.21759940692e-07
2.21167133469e-07
2.20757664361e-07
2.20565583189e-07
2.93247974318e-108
2.93247974318e-108
2.93247974318e-108
2.93247974318e-108
2.93247974319e-108
2.93247974319e-108
2.93247974319e-108
2.93247974319e-108
2.93247974319e-108
2.93247974319e-108
2.93247974319e-108
2.93247974319e-108
2.93247974319e-108
2.93247974319e-108
2.93247974319e-108
2.93247974321e-108
2.93247974411e-108
2.93247979683e-108
2.93248288158e-108
2.93265534694e-108
2.94239707671e-108
3.07798367126e-108
5.56815902687e-22
2.28441676063e-08
1.73323329704e-07
2.29749637405e-07
2.59885056791e-07
2.84783844199e-07
3.02478936961e-07
3.0895475701e-07
3.08609449381e-07
3.06147375105e-07
3.03243529368e-07
3.00290732963e-07
2.97359440741e-07
2.94475620993e-07
2.91689407987e-07
2.88863416973e-07
2.86059445508e-07
2.83273750754e-07
2.8050971418e-07
2.77828120722e-07
2.75076225009e-07
2.72336507897e-07
2.6959810667e-07
2.66872306495e-07
2.642318723e-07
2.61518722047e-07
2.58824756668e-07
2.56146455663e-07
2.53501565686e-07
2.509698772e-07
2.48402102205e-07
2.45883835794e-07
2.4343231981e-07
2.41062326167e-07
2.38860380065e-07
2.36677306581e-07
2.34607879052e-07
2.32658429197e-07
2.30847509512e-07
2.29186822764e-07
2.27684965482e-07
2.26433371229e-07
2.25270205095e-07
2.24284379902e-07
2.23482239613e-07
2.22865725157e-07
2.22436831307e-07
2.22231345144e-07
2.93247974314e-108
2.93247974314e-108
2.93247974314e-108
2.93247974314e-108
2.93247974314e-108
2.93247974314e-108
2.93247974314e-108
2.93247974314e-108
2.93247974314e-108
2.93247974314e-108
2.93247974315e-108
2.93247974315e-108
2.93247974315e-108
2.93247974315e-108
2.93247974315e-108
2.93247974319e-108
2.93247974529e-108
2.93247986614e-108
2.93248674903e-108
2.93286106392e-108
2.95300730876e-108
4.03863638115e-44
1.79064213992e-14
4.82738964999e-08
1.92295177223e-07
2.40233849894e-07
2.71364820505e-07
2.97397900675e-07
3.13758035326e-07
3.1822538037e-07
3.1684252177e-07
3.13845737496e-07
3.10556500094e-07
3.07270942814e-07
3.04093399218e-07
3.00895161157e-07
2.9773520436e-07
2.94615013796e-07
2.91538136046e-07
2.88562120536e-07
2.85533095526e-07
2.82534050285e-07
2.79550472612e-07
2.76665565465e-07
2.73715859704e-07
2.70782608411e-07
2.67872544511e-07
2.6505997887e-07
2.62190354548e-07
2.59355955744e-07
2.56549767822e-07
2.53797823928e-07
2.51176131483e-07
2.4853996352e-07
2.45975437603e-07
2.43492732815e-07
2.4111439209e-07
2.38929062403e-07
2.36778196873e-07
2.34755668696e-07
2.32882156448e-07
2.31163019645e-07
2.29609050886e-07
2.28312096613e-07
2.27109321717e-07
2.26090050559e-07
2.25259462488e-07
2.24620945649e-07
2.24175233489e-07
2.23957663306e-07
2.9324797431e-108
2.9324797431e-108
2.9324797431e-108
2.9324797431e-108
2.9324797431e-108
2.9324797431e-108
2.93247974311e-108
2.93247974311e-108
2.93247974311e-108
2.93247974311e-108
2.93247974311e-108
2.93247974311e-108
2.93247974311e-108
2.93247974311e-108
2.93247974311e-108
2.93247974322e-108
2.93247974958e-108
2.93248012227e-108
2.9325013077e-108
2.93370282131e-108
2.96728617402e-108
1.18240575541e-42
7.55952910108e-12
8.60202217952e-08
2.08035900047e-07
2.51734553443e-07
2.84241826029e-07
3.110980798e-07
3.25156140102e-07
3.27602323859e-07
3.25165885329e-07
3.21621148436e-07
3.1793350575e-07
3.14355635662e-07
3.10769285041e-07
3.07244825232e-07
3.0385495927e-07
3.00441997978e-07
2.97080693996e-07
2.93760491205e-07
2.90557101436e-07
2.87306541046e-07
2.84091108395e-07
2.80899870566e-07
2.77821272659e-07
2.74681452091e-07
2.71578480998e-07
2.68502346007e-07
2.65547295246e-07
2.62548878977e-07
2.59599271059e-07
2.56702891191e-07
2.53956095844e-07
2.5119932569e-07
2.48522340054e-07
2.45937138482e-07
2.43465543819e-07
2.41194908723e-07
2.38968387274e-07
2.36881376567e-07
2.34940842583e-07
2.33162529206e-07
2.31559279514e-07
2.30224485383e-07
2.28983135871e-07
2.27931218653e-07
2.27072211799e-07
2.26408303853e-07
2.25942984884e-07
2.25710288858e-07
2.93247974307e-108
2.93247974307e-108
2.93247974307e-108
2.93247974307e-108
2.93247974307e-108
2.93247974307e-108
2.93247974307e-108
2.93247974307e-108
2.93247974307e-108
2.93247974307e-108
2.93247974307e-108
2.93247974307e-108
2.93247974307e-108
2.93247974308e-108
2.93247974308e-108
2.9324797434e-108
2.93247976201e-108
2.93248083996e-108
2.93254111024e-108
2.9359715157e-108
3.00015174432e-108
1.24961293941e-29
1.70873453892e-09
1.29629345985e-07
2.22681568169e-07
2.64671305992e-07
2.99040075923e-07
3.2509184296e-07
3.36275519508e-07
3.36758253681e-07
3.33425784058e-07
3.29440436252e-07
3.25351414175e-07
3.21327130536e-07
3.17466139984e-07
3.1361551238e-07
3.09837638974e-07
3.06133438605e-07
3.02559326893e-07
2.98964129743e-07
2.95427037747e-07
2.92009038055e-07
2.8855910101e-07
2.85147005869e-07
2.81779878505e-07
2.78525229698e-07
2.75228266653e-07
2.71980474774e-07
2.68854587627e-07
2.65702736853e-07
2.62605391849e-07
2.59570386312e-07
2.56698636973e-07
2.53824245473e-07
2.51038160156e-07
2.4835529981e-07
2.45793677975e-07
2.43441555757e-07
2.41140845663e-07
2.38987103211e-07
2.3699046485e-07
2.35162255955e-07
2.33507980884e-07
2.32132743015e-07
2.3085097694e-07
2.2976582416e-07
2.28881082386e-07
2.28197184862e-07
2.2771425629e-07
2.27467297368e-07
2.93247974304e-108
2.93247974304e-108
2.93247974304e-108
2.93247974304e-108
2.93247974304e-108
2.93247974304e-108
2.93247974304e-108
2.93247974304e-108
2.93247974304e-108
2.93247974304e-108
2.93247974304e-108
2.93247974304e-108
2.93247974304e-108
2.93247974305e-108
2.93247974306e-108
2.93247974411e-108
2.93247980452e-108
2.93248328433e-108
2.93267516045e-108
2.94330169357e-108
3.08926436342e-108
6.07912988891e-22
2.27986438285e-08
1.72817080514e-07
2.37391876597e-07
2.79324136299e-07
3.15012115981e-07
3.39014387862e-07
3.46822408657e-07
3.45544364393e-07
3.41508868363e-07
3.37008424947e-07
3.32534059062e-07
3.28221883363e-07
3.23945101516e-07
3.19773796767e-07
3.15755664753e-07
3.11757408654e-07
3.0782779802e-07
3.04041349792e-07
3.00250493133e-07
2.96513658208e-07
2.92907624002e-07
2.89282242407e-07
2.85701675429e-07
2.82252121575e-07
2.78778734038e-07
2.75355197442e-07
2.72071602263e-07
2.68765930227e-07
2.65523418893e-07
2.62362674556e-07
2.59367683146e-07
2.56382030397e-07
2.53496945099e-07
2.5072021106e-07
2.48159680736e-07
2.45644067643e-07
2.43272375174e-07
2.41054363719e-07
2.3899716822e-07
2.37120338701e-07
2.35520240705e-07
2.34013006945e-07
2.32699950805e-07
2.31582628505e-07
2.30669542134e-07
2.29963037083e-07
2.29462303246e-07
2.2919996263e-07
2.93247974301e-108
2.93247974301e-108
2.93247974301e-108
2.93247974301e-108
2.93247974301e-108
2.93247974301e-108
2.93247974302e-108
2.93247974302e-108
2.93247974302e-108
2.93247974302e-108
2.93247974302e-108
2.93247974302e-108
2.93247974302e-108
2.93247974302e-108
2.93247974307e-108
2.93247974611e-108
2.9324799207e-108
2.93249001053e-108
2.93306081112e-108
2.95806222606e-108
3.30691323585e-43
1.81707466278e-13
5.63992524533e-08
1.98209138674e-07
2.53366850617e-07
2.96309426543e-07
3.3228292299e-07
3.52472495259e-07
3.56870448285e-07
3.53937085083e-07
3.49239506322e-07
3.44313549945e-07
3.3953214458e-07
3.34802865411e-07
3.30262928155e-07
3.25772234243e-07
3.21453342865e-07
3.17166812043e-07
3.12962857804e-07
3.08925095152e-07
3.04879411485e-07
3.00907413897e-07
2.97082570036e-07
2.93241419007e-07
2.89468270835e-07
2.8582985404e-07
2.82175141308e-07
2.7858226013e-07
2.75144645974e-07
2.716970002e-07
2.68321573117e-07
2.6503645108e-07
2.61932943343e-07
2.58835998918e-07
2.55852733335e-07
2.52995582405e-07
2.50355549393e-07
2.47769037291e-07
2.45332449544e-07
2.43055443205e-07
2.40948412573e-07
2.3911846471e-07
2.37380648611e-07
2.3583622122e-07
2.34490828775e-07
2.33349352271e-07
2.32414423469e-07
2.31687138986e-07
2.31167848977e-07
2.30888642784e-07
2.93247974299e-108
2.93247974299e-108
2.93247974299e-108
2.93247974299e-108
2.93247974299e-108
2.93247974299e-108
2.93247974299e-108
2.93247974299e-108
2.93247974299e-108
2.93247974299e-108
2.93247974299e-108
2.93247974299e-108
2.93247974299e-108
2.932479743e-108
2.93247974322e-108
2.93247975611e-108
2.93248049115e-108
2.93252097946e-108
2.93475887005e-108
2.98288450245e-108
2.29750321152e-42
7.10677066097e-11
1.06258030644e-07
2.19147169085e-07
2.7111200311e-07
3.15644530998e-07
3.49910186526e-07
3.65222646814e-07
3.66191747084e-07
3.61948325063e-07
3.56712966817e-07
3.5136941055e-07
3.46217979632e-07
3.41148147785e-07
3.3621752063e-07
3.31479326471e-07
3.26801096537e-07
3.2230041771e-07
3.17832644657e-07
3.1353992312e-07
3.09256836589e-07
3.0506020555e-07
3.01019929474e-07
2.96977753418e-07
2.93009050658e-07
2.89197361335e-07
2.85373743298e-07
2.81627809623e-07
2.78042430988e-07
2.7445637509e-07
2.70962460448e-07
2.67649685771e-07
2.64343799382e-07
2.61154741153e-07
2.58087219421e-07
2.55234830717e-07
2.52433851309e-07
2.49780975192e-07
2.47287481266e-07
2.4505561172e-07
2.42905197514e-07
2.40937132186e-07
2.39161949902e-07
2.37584253685e-07
2.3620792862e-07
2.35037787103e-07
2.34178901682e-07
2.3343131888e-07
2.32893033231e-07
2.32595984805e-07
2.93247974297e-108
2.93247974297e-108
2.93247974297e-108
2.93247974297e-108
2.93247974297e-108
2.93247974297e-108
2.93247974297e-108
2.93247974297e-108
2.93247974297e-108
2.93247974297e-108
2.93247974297e-108
2.93247974297e-108
2.93247974297e-108
2.93247974299e-108
2.93247974388e-108
2.93247979448e-108
2.9324826639e-108
2.93263908292e-108
2.94120754292e-108
3.06708492498e-108
2.74279761888e-22
1.5959366674e-08
1.61153929397e-07
2.39339781194e-07
2.9123440746e-07
3.36472887277e-07
3.66714523624e-07
3.76617847526e-07
3.74706770798e-07
3.69485546163e-07
3.63683249475e-07
3.58013311045e-07
3.52446895956e-07
3.47104821506e-07
3.41861970359e-07
3.3682773418e-07
3.31865735993e-07
3.27097935411e-07
3.2237581525e-07
3.17833905673e-07
3.13326105449e-07
3.08910517234e-07
3.04672231178e-07
3.00435684934e-07
2.96294219455e-07
2.92310514314e-07
2.88335367146e-07
2.84524832579e-07
2.80722237357e-07
2.77012984978e-07
2.73396403039e-07
2.69975642092e-07
2.66579842135e-07
2.6330341432e-07
2.60248291898e-07
2.572361716e-07
2.54367722389e-07
2.5165664288e-07
2.49210614074e-07
2.46837119509e-07
2.44643524829e-07
2.4264096177e-07
2.40828000656e-07
2.39222232239e-07
2.3792003673e-07
2.36728196522e-07
2.35746891349e-07
2.34977810223e-07
2.34420883401e-07
2.34104470319e-07
2.93247974295e-108
2.93247974295e-108
2.93247974295e-108
2.93247974295e-108
2.93247974295e-108
2.93247974295e-108
2.93247974295e-108
2.93247974295e-108
2.93247974295e-108
2.93247974295e-108
2.93247974295e-108
2.93247974295e-108
2.93247974295e-108
2.93247974301e-108
2.93247974636e-108
2.93247993477e-108
2.9324906111e-108
2.93308568627e-108
2.95905616837e-108
3.18614040001e-43
1.48241977306e-13
5.30755680085e-08
1.98085108781e-07
2.61200895284e-07
3.14119989755e-07
3.57938743449e-07
3.81893523495e-07
3.86421099283e-07
3.82391107263e-07
3.76336077806e-07
3.70156255789e-07
3.64066901831e-07
3.58233559547e-07
3.52583099192e-07
3.47040785028e-07
3.41728489306e-07
3.36501589979e-07
3.31478991484e-07
3.26522693105e-07
3.21759883758e-07
3.17033731532e-07
3.12423269392e-07
3.07989594752e-07
3.03576265358e-07
2.99342732125e-07
2.95126272336e-07
2.9100791739e-07
2.87068799918e-07
2.83140453424e-07
2.79316847492e-07
2.75693553623e-07
2.7208769937e-07
2.68604351156e-07
2.65341076031e-07
2.62122069318e-07
2.59045518666e-07
2.56125299468e-07
2.53462504233e-07
2.50872727497e-07