/*--------------------------------*- C++ -*----------------------------------*\
| =========                 |                                                 |
| \\      /  F ield         | foam-extend: Open Source CFD                    |
|  \\    /   O peration     | Version:     4.1                                |
|   \\  /    A nd           | Web:         http://www.foam-extend.org         |
|    \\/     M anipulation  |                                                 |
\*---------------------------------------------------------------------------*/
FoamFile
{
    version     2.0;
    format      ascii;
    class       volScalarField;
    location    "0.0005";
    object      OPlus;
}
// * * * * * * * * * * * * * * * * * * * * * * * * * * * * * * * * * * * * * //

dimensions      [0 0 0 0 0 0 0];

internalField   nonuniform List<scalar> 
8400
(
6.45488964125e-195
6.45488964128e-195
6.45488964132e-195
6.45488964136e-195
6.4548896414e-195
6.45488964143e-195
6.45488964147e-195
6.4548896415e-195
6.45488964154e-195
6.45488964157e-195
6.4548896416e-195
6.45488964164e-195
6.45488964167e-195
6.4548896417e-195
6.45488964173e-195
6.45488964176e-195
6.45488964179e-195
6.45488964182e-195
6.45488964185e-195
6.45488964203e-195
6.45488965104e-195
6.45489019271e-195
6.45492188368e-195
6.45676048251e-195
6.51863318467e-195
2.84307682283e-73
4.38460010628e-16
4.35856241318e-05
0.0309281704472
0.0821313855828
0.11665010887
0.133785251552
0.140926285243
0.143515564434
0.144403983841
0.144762750769
0.145000054779
0.14520607801
0.145402838469
0.145597654233
0.14577028388
0.145969909366
0.14617446876
0.146385768409
0.14660582729
0.146836171419
0.147078106013
0.147333001956
0.147602420134
0.14788601748
0.148183407843
0.148471108639
0.148796861601
0.14913389087
0.149480582519
0.149835720568
0.150195992842
0.150559332753
0.15091959688
0.151272923272
0.151618511751
0.15192359216
0.152233630769
0.152516784106
0.152768703285
0.15298574262
0.15316445426
0.153302401571
0.153397362877
0.15353356191
6.4548896315e-195
6.45488963151e-195
6.45488963153e-195
6.45488963154e-195
6.45488963156e-195
6.45488963157e-195
6.45488963159e-195
6.4548896316e-195
6.45488963162e-195
6.45488963163e-195
6.45488963164e-195
6.45488963166e-195
6.45488963167e-195
6.45488963168e-195
6.4548896317e-195
6.45488963171e-195
6.45488963172e-195
6.45488963173e-195
6.45488963176e-195
6.45488963266e-195
6.45488968602e-195
6.45489288224e-195
6.45507517143e-195
6.46568439408e-195
6.64642860541e-195
1.02008171827e-46
8.28876733182e-08
0.00258928916883
0.053874000751
0.100213149218
0.127012417256
0.13902789351
0.14368690178
0.145224395568
0.14569591644
0.14595399311
0.146142363192
0.146327305853
0.146517321752
0.146714278272
0.14691928464
0.147133269838
0.147357868267
0.147592946261
0.14783847866
0.148095825783
0.148366075817
0.148649788002
0.14894792662
0.14925996016
0.149584111118
0.149920560284
0.150268793702
0.150625843871
0.150990331707
0.15136093575
0.151732186386
0.152100794445
0.152464077669
0.152797252109
0.153138592127
0.15346258203
0.153763826794
0.154036747039
0.154278205157
0.154485757346
0.154656102075
0.154786949358
0.154876480426
0.154987963546
6.45488962734e-195
6.45488962735e-195
6.45488962736e-195
6.45488962737e-195
6.45488962738e-195
6.45488962739e-195
6.4548896274e-195
6.4548896274e-195
6.45488962741e-195
6.45488962742e-195
6.45488962743e-195
6.45488962744e-195
6.45488962745e-195
6.45488962745e-195
6.45488962746e-195
6.45488962747e-195
6.45488962748e-195
6.45488962749e-195
6.45488962756e-195
6.45488963173e-195
6.45488987536e-195
6.45490408306e-195
6.45569352268e-195
6.49959966171e-195
4.27080369865e-75
3.02065795196e-19
1.38370914514e-05
0.0227306078994
0.0760157287523
0.114414079298
0.133979926405
0.142199097536
0.145082984631
0.145963759673
0.146276000113
0.146451775083
0.146611531226
0.146775062554
0.146947090325
0.147129198127
0.147322824533
0.147528012673
0.147744978925
0.147974349169
0.148217182388
0.148474132592
0.148745298036
0.149031635688
0.149331907884
0.149645357916
0.149972269434
0.150311461928
0.150659400877
0.151015906133
0.151379570646
0.151745079595
0.152109882186
0.152470883093
0.15282572228
0.153170174286
0.153498373841
0.153808351525
0.154073005003
0.154332280915
0.154561344907
0.15475734715
0.154917568146
0.155039799486
0.15512267739
0.155217774323
6.45488962505e-195
6.45488962506e-195
6.45488962507e-195
6.45488962507e-195
6.45488962508e-195
6.45488962508e-195
6.45488962509e-195
6.4548896251e-195
6.4548896251e-195
6.45488962511e-195
6.45488962512e-195
6.45488962512e-195
6.45488962513e-195
6.45488962513e-195
6.45488962514e-195
6.45488962514e-195
6.45488962515e-195
6.45488962516e-195
6.4548896255e-195
6.45488964559e-195
6.45489084527e-195
6.45495973342e-195
6.45897070882e-195
6.55074910069e-195
7.82268392693e-73
2.33614582181e-13
0.000169415238172
0.0423540961318
0.0921680678428
0.123231915174
0.137680919775
0.143464011762
0.1453593521
0.145937477355
0.146198785999
0.1463768527
0.146548214873
0.146723711644
0.146906798753
0.147098965967
0.147302202875
0.147516701026
0.147742844384
0.147981261482
0.148233201326
0.148499349623
0.148779732179
0.149075079815
0.149383940505
0.14970547623
0.150040059369
0.15038588684
0.150739207303
0.151099835846
0.15146552256
0.151831427923
0.152195665721
0.152555103769
0.152884762165
0.153223359118
0.153546327176
0.153848943502
0.154127136586
0.154378344656
0.15459994822
0.154788899427
0.154942795004
0.155059842755
0.155139028528
0.155225630662
6.45488962363e-195
6.45488962364e-195
6.45488962364e-195
6.45488962365e-195
6.45488962365e-195
6.45488962366e-195
6.45488962366e-195
6.45488962367e-195
6.45488962367e-195
6.45488962368e-195
6.45488962368e-195
6.45488962369e-195
6.45488962369e-195
6.4548896237e-195
6.4548896237e-195
6.45488962371e-195
6.45488962371e-195
6.45488962373e-195
6.45488962496e-195
6.454889698e-195
6.4548940621e-195
6.45514363404e-195
6.46974257628e-195
6.6977982804e-195
2.87512032352e-35
4.51985855393e-07
0.0058392583635
0.0584615424257
0.10326257063
0.128447680691
0.139524839394
0.143718471731
0.145039505378
0.145459855793
0.145710814367
0.145907244634
0.146102960435
0.146304596247
0.146513548534
0.146730703362
0.146957193534
0.147194649589
0.147444113519
0.147705332416
0.147978185623
0.148263968174
0.148563389226
0.148876532579
0.149203596208
0.149542258199
0.149891696303
0.150251479655
0.150617943271
0.150990000459
0.151343577697
0.151719263164
0.152091628805
0.152454791492
0.152807308776
0.153146693622
0.153470202362
0.153773164994
0.154050496056
0.154299690828
0.154519068087
0.154705861268
0.154857949691
0.15497338664
0.155051411099
0.155134159907
6.45488962269e-195
6.45488962269e-195
6.4548896227e-195
6.4548896227e-195
6.4548896227e-195
6.45488962271e-195
6.45488962271e-195
6.45488962272e-195
6.45488962272e-195
6.45488962272e-195
6.45488962273e-195
6.45488962273e-195
6.45488962273e-195
6.45488962274e-195
6.45488962274e-195
6.45488962275e-195
6.45488962275e-195
6.45488962281e-195
6.45488962602e-195
6.45488981532e-195
6.45490096184e-195
6.45552712653e-195
6.49098531169e-195
6.93253847481e-195
2.04645398845e-22
7.30346481913e-06
0.0182219524816
0.0711064355763
0.110747407889
0.131330061033
0.140103858843
0.143267458804
0.144271730401
0.144649607009
0.144920540102
0.145149072595
0.145378189924
0.145612056239
0.145852228324
0.146100609745
0.146358704361
0.146626500842
0.146904557247
0.147194219263
0.147496967516
0.147811228824
0.148136663854
0.14847468251
0.148824659884
0.149187842827
0.149538775719
0.149918128156
0.1503028889
0.150692437772
0.151083891515
0.151472009721
0.151856012988
0.152231181892
0.152592709213
0.152939449112
0.153268621359
0.153554558646
0.153836016594
0.154088336013
0.154309193139
0.15449711973
0.15465019166
0.154766487665
0.154845010938
0.154925572727
6.45488962202e-195
6.45488962202e-195
6.45488962203e-195
6.45488962203e-195
6.45488962203e-195
6.45488962204e-195
6.45488962204e-195
6.45488962204e-195
6.45488962205e-195
6.45488962205e-195
6.45488962205e-195
6.45488962206e-195
6.45488962206e-195
6.45488962206e-195
6.45488962207e-195
6.45488962207e-195
6.45488962207e-195
6.4548896222e-195
6.4548896298e-195
6.45489009328e-195
6.45491766803e-195
6.45653270611e-195
6.5158914558e-195
2.32376740933e-73
1.73661487739e-16
3.75328291887e-05
0.0297634013974
0.0811027806625
0.115784276356
0.132840710962
0.139873265525
0.1423882917
0.143201613734
0.143574313327
0.143858760048
0.144150311762
0.144418289602
0.144690985879
0.14496930393
0.145256088004
0.145550616676
0.145853309611
0.146166177951
0.146490260267
0.146825254225
0.147150243316
0.14750817904
0.147876846624
0.148256505875
0.148644801133
0.149042365105
0.149447172889
0.149854932419
0.150264983838
0.15067529522
0.151083777149
0.151484409606
0.151851221072
0.152228213414
0.152586573884
0.152925671004
0.153241827041
0.153530006598
0.1537877308
0.154013148501
0.154204422781
0.15435991727
0.154478230627
0.154558507231
0.154638756792
6.45488962153e-195
6.45488962153e-195
6.45488962153e-195
6.45488962154e-195
6.45488962154e-195
6.45488962154e-195
6.45488962155e-195
6.45488962155e-195
6.45488962155e-195
6.45488962155e-195
6.45488962156e-195
6.45488962156e-195
6.45488962156e-195
6.45488962156e-195
6.45488962157e-195
6.45488962157e-195
6.45488962158e-195
6.45488962191e-195
6.45488964165e-195
6.45489082063e-195
6.45495859741e-195
6.45890038619e-195
6.55045702138e-195
7.60546106587e-73
1.72211256053e-13
0.000151174040665
0.0405541526684
0.0889983122581
0.11924568353
0.133417836961
0.139172713105
0.141165295328
0.141881990305
0.142273461113
0.14260434314
0.14292257092
0.14323779773
0.143555869233
0.143878264479
0.144206551764
0.144541583862
0.144883705492
0.145235661226
0.145597492362
0.145968012178
0.146349705491
0.146741980575
0.147143101122
0.147553772278
0.147973189984
0.148399922027
0.148830905706
0.149244266986
0.149679259404
0.150111876043
0.150540393457
0.150959350391
0.151366478706
0.151758540299
0.152133677633
0.152485527827
0.152811736529
0.15308698703
0.153354170315
0.153586578019
0.153783460579
0.153943375685
0.154065085407
0.154147761428
0.154228352207
6.45488962115e-195
6.45488962116e-195
6.45488962116e-195
6.45488962116e-195
6.45488962116e-195
6.45488962117e-195
6.45488962117e-195
6.45488962117e-195
6.45488962117e-195
6.45488962118e-195
6.45488962118e-195
6.45488962118e-195
6.45488962118e-195
6.45488962119e-195
6.45488962119e-195
6.45488962119e-195
6.4548896212e-195
6.45488962197e-195
6.45488966844e-195
6.45489248363e-195
6.45505535862e-195
6.4646146253e-195
6.63360323547e-195
6.96334846017e-47
3.2098096429e-08
0.00144863273973
0.0504493385012
0.0954031519171
0.121572162444
0.133432176324
0.138091021738
0.13971631569
0.140375641308
0.140794877463
0.1411696279
0.141537699612
0.141903976729
0.142269792031
0.142640575654
0.143014846703
0.143393308082
0.143779004029
0.144172667685
0.144574634082
0.144984187139
0.145404452069
0.145833167953
0.146270532541
0.146694196085
0.147145954458
0.147604095965
0.148065762118
0.148528063078
0.148990283834
0.149446781459
0.149896630849
0.150338101056
0.150743354404
0.151154626663
0.151545302147
0.151911881011
0.152250840252
0.152559779339
0.152835923511
0.153077128928
0.153281391823
0.153447014262
0.153572626274
0.15365760581
0.153737988969
6.45488962086e-195
6.45488962086e-195
6.45488962086e-195
6.45488962087e-195
6.45488962087e-195
6.45488962087e-195
6.45488962087e-195
6.45488962087e-195
6.45488962088e-195
6.45488962088e-195
6.45488962088e-195
6.45488962088e-195
6.45488962089e-195
6.45488962089e-195
6.45488962089e-195
6.45488962089e-195
6.45488962092e-195
6.45488962271e-195
6.45488972904e-195
6.45489603824e-195
6.4552532976e-195
6.47579570858e-195
6.76852170837e-195
2.02740219376e-32
1.37609251169e-06
0.0086789212982
0.0594142533349
0.100477122576
0.122912353006
0.132927736423
0.136737632471
0.138106150777
0.138712733937
0.139164693833
0.13958464863
0.14000071072
0.140416019365
0.140831920354
0.141249822546
0.141673384221
0.142099862571
0.142531746942
0.142970560801
0.14341567629
0.143847147645
0.14430730574
0.144775146241
0.145250727285
0.14573197521
0.146219117455
0.146708805867
0.147200732197
0.147694357358
0.148161207269
0.148645058748
0.149121044579
0.149584387044
0.150032695817
0.15046330092
0.150871289124
0.151252434535
0.151582219236
0.151904469491
0.152192963211
0.152444423062
0.152656146138
0.152827302422
0.152957015793
0.1530448039
0.153125458401
6.45488962062e-195
6.45488962062e-195
6.45488962063e-195
6.45488962063e-195
6.45488962063e-195
6.45488962063e-195
6.45488962063e-195
6.45488962064e-195
6.45488962064e-195
6.45488962064e-195
6.45488962064e-195
6.45488962064e-195
6.45488962065e-195
6.45488962065e-195
6.45488962065e-195
6.45488962065e-195
6.45488962072e-195
6.45488962439e-195
6.45488983915e-195
6.45490236091e-195
6.45559918925e-195
6.4945009318e-195
6.97264720721e-195
1.4800756636e-21
8.0290828037e-06
0.0174960782549
0.0676820094214
0.104457206643
0.123620899649
0.131935759167
0.135078320885
0.136265189726
0.13687908955
0.137379081967
0.137853913105
0.138322511141
0.138790682647
0.139259671207
0.139729332021
0.140202759383
0.140656475656
0.141136420366
0.141622250207
0.142113163922
0.142609435804
0.14311206989
0.143622107908
0.14413609424
0.144655637872
0.145156528977
0.145681615864
0.146207436507
0.146730394954
0.147250287678
0.147761664962
0.148262263754
0.148726957535
0.149199152429
0.149649154685
0.150074059749
0.150472606283
0.150841891165
0.151176214881
0.1514746424
0.151735819948
0.151933105164
0.152111394777
0.152245396824
0.152336048928
0.152417165369
6.45488962043e-195
6.45488962043e-195
6.45488962043e-195
6.45488962043e-195
6.45488962043e-195
6.45488962044e-195
6.45488962044e-195
6.45488962044e-195
6.45488962044e-195
6.45488962044e-195
6.45488962044e-195
6.45488962045e-195
6.45488962045e-195
6.45488962045e-195
6.45488962045e-195
6.45488962046e-195
6.45488962059e-195
6.45488962841e-195
6.45489010185e-195
6.45491812295e-195
6.45654530634e-195
6.51732454139e-195
2.23325904094e-73
1.29703086913e-16
3.21152376131e-05
0.0266684432272
0.0748352833378
0.107408821714
0.123677649597
0.130560396247
0.133178557927
0.134250673493
0.134895201028
0.135450426022
0.135985525769
0.136514837768
0.137039835502
0.13754192056
0.138067641801
0.138591462975
0.139119238072
0.139648628857
0.14018125975
0.140719506042
0.141261597517
0.14178721355
0.142339283778
0.142896090495
0.143455420495
0.144015611293
0.144576744626
0.145135737219
0.145668018149
0.146218874444
0.146759259457
0.147286205241
0.147798171307
0.148292135716
0.148739140294
0.149183762279
0.149599144373
0.149982886502
0.150332075717
0.150642630899
0.150912640487
0.151140577972
0.151324874205
0.151464547856
0.151559328199
0.15164149025
6.45488962026e-195
6.45488962026e-195
6.45488962027e-195
6.45488962027e-195
6.45488962027e-195
6.45488962027e-195
6.45488962027e-195
6.45488962027e-195
6.45488962028e-195
6.45488962028e-195
6.45488962028e-195
6.45488962028e-195
6.45488962028e-195
6.45488962028e-195
6.45488962029e-195
6.45488962029e-195
6.45488962063e-195
6.45488964081e-195
6.45489083357e-195
6.45495880777e-195
6.45886175874e-195
6.55126164521e-195
7.1572456634e-73
8.96618430721e-14
0.000116705650926
0.0361547009506
0.0813227056839
0.109652842091
0.123221359329
0.128885011054
0.131086759245
0.132082199852
0.132767416311
0.133388562979
0.133971425169
0.134563807643
0.135151135596
0.135734172853
0.136315350468
0.136894575205
0.137473971213
0.13805651299
0.138619047809
0.139205533677
0.139794099769
0.140387752808
0.140982224084
0.141581183011
0.142157923409
0.142757606224
0.143356523063
0.143949900195
0.144538251808
0.145119656846
0.145665899698
0.146220816523
0.146758001321
0.147274705564
0.147765419462
0.148228866878
0.148638098278
0.149037314289
0.149399546434
0.149723226058
0.150004159687
0.150240147934
0.150430778705
0.150575399551
0.150673599045
0.150756216684
6.45488962012e-195
6.45488962013e-195
6.45488962013e-195
6.45488962013e-195
6.45488962013e-195
6.45488962013e-195
6.45488962013e-195
6.45488962014e-195
6.45488962014e-195
6.45488962014e-195
6.45488962014e-195
6.45488962014e-195
6.45488962014e-195
6.45488962014e-195
6.45488962015e-195
6.45488962016e-195
6.45488962098e-195
6.4548896699e-195
6.45489258933e-195
6.4550598012e-195
6.46475886174e-195
6.63684934521e-195
6.39978711286e-47
1.96089707605e-08
0.000809531072254
0.0455511163498
0.086980182805
0.111126110268
0.122339341466
0.126974885301
0.128822091549
0.129783594936
0.130501233297
0.131191781986
0.131862042287
0.132522197324
0.13317281751
0.13381998938
0.134460698208
0.135077658647
0.135715269478
0.136349475681
0.136985268192
0.137622236431
0.138237853963
0.138876764534
0.139516622139
0.140157724077
0.140797459177
0.141437192896
0.142049570745
0.142678836473
0.14330243601
0.143912976252
0.144511714126
0.145071043564
0.145634952008
0.14617590625
0.146687924738
0.147170382757
0.147619386089
0.148034565641
0.148387037455
0.14872194743
0.149012443616
0.149257210929
0.149454701748
0.149604458071
0.149706115826
0.149789097196
6.45488962001e-195
6.45488962001e-195
6.45488962001e-195
6.45488962001e-195
6.45488962001e-195
6.45488962001e-195
6.45488962001e-195
6.45488962002e-195
6.45488962002e-195
6.45488962002e-195
6.45488962002e-195
6.45488962002e-195
6.45488962002e-195
6.45488962003e-195
6.45488962003e-195
6.45488962006e-195
6.45488962221e-195
6.45488974833e-195
6.45489712661e-195
6.45530963988e-195
6.47861050858e-195
6.80291486866e-195
1.53270809627e-31
1.56061930297e-06
0.00770915502955
0.0546669776427
0.0916742727659
0.111905344212
0.121087644009
0.124865751435
0.12644599091
0.127377306527
0.128166249081
0.12891959662
0.129658750313
0.130383766733
0.131081735387
0.131790991148
0.132492944193
0.133191145848
0.13388445021
0.134555057866
0.135246113927
0.135933625537
0.136621593384
0.137308116372
0.137970747595
0.138656311801
0.139337353157
0.140016505878
0.140688978158
0.141331101721
0.141986489901
0.142630165432
0.143258281487
0.143868104507
0.144432702148
0.144996811949
0.145531464773
0.146035386734
0.1465033339
0.146932609353
0.147322122978
0.14764358646
0.147944996308
0.148198410612
0.148402741469
0.14855768196
0.148663146976
0.148746751595
6.4548896199e-195
6.4548896199e-195
6.45488961991e-195
6.45488961991e-195
6.45488961991e-195
6.45488961991e-195
6.45488961991e-195
6.45488961991e-195
6.45488961991e-195
6.45488961992e-195
6.45488961992e-195
6.45488961992e-195
6.45488961992e-195
6.45488961992e-195
6.45488961992e-195
6.45488962001e-195
6.45488962506e-195
6.4548899141e-195
6.45490637702e-195
6.4558016864e-195
6.50398871451e-195
1.65058295568e-74
2.75597807012e-19
1.10918913032e-05
0.0173713668595
0.0630153557149
0.0952105030226
0.112032391632
0.119448109213
0.12253712006
0.123940928866
0.124893985696
0.12574732091
0.12656830266
0.127354669235
0.128148254777
0.128931655647
0.12970461016
0.130469105477
0.131205538908
0.131959325914
0.132705590673
0.133450887904
0.134168615878
0.13490719958
0.135642688518
0.136375127628
0.13708100331
0.137806413166
0.138523105495
0.139235188081
0.139936094056
0.140601688344
0.14127611374
0.141933217341
0.142570813539
0.143184297887
0.14374617124
0.144303033316
0.144826162215
0.1453108771
0.14575618044
0.146159581432
0.146492907263
0.146804852719
0.147067071643
0.147278884533
0.147439417001
0.14754853648
0.147632605504
6.45488961981e-195
6.45488961981e-195
6.45488961982e-195
6.45488961982e-195
6.45488961982e-195
6.45488961982e-195
6.45488961982e-195
6.45488961982e-195
6.45488961982e-195
6.45488961982e-195
6.45488961983e-195
6.45488961983e-195
6.45488961983e-195
6.45488961983e-195
6.45488961984e-195
6.45488962009e-195
6.4548896353e-195
6.45489052674e-195
6.45494119934e-195
6.45781505352e-195
6.53814178307e-195
4.71687964353e-73
4.16891508611e-15
5.4332548828e-05
0.0279203522392
0.0704864518558
0.0979605566966
0.111494873379
0.11746719323
0.119995660718
0.121316486754
0.122318476693
0.123244811544
0.124121592256
0.125001061444
0.125865559859
0.126694345756
0.127532300244
0.128358716326
0.129177473297
0.129965337192
0.130770435458
0.131568029902
0.132362574794
0.133126980808
0.133912981013
0.134690724095
0.135465503617
0.13620823516
0.136966782154
0.137715485873
0.138453293869
0.139151336038
0.139857347418
0.14054343455
0.141207945314
0.14184629729
0.142430189342
0.143007807358
0.143548717743
0.14405158217
0.144512506532
0.14492901118
0.145272090609
0.145593948456
0.14586422123
0.146082774943
0.146248996253
0.146361985012
0.146446817967
6.45488961973e-195
6.45488961973e-195
6.45488961974e-195
6.45488961974e-195
6.45488961974e-195
6.45488961974e-195
6.45488961974e-195
6.45488961974e-195
6.45488961974e-195
6.45488961974e-195
6.45488961975e-195
6.45488961975e-195
6.45488961975e-195
6.45488961975e-195
6.45488961976e-195
6.45488962053e-195
6.45488966503e-195
6.45489224335e-195
6.4550364015e-195
6.46324145638e-195
6.61675167648e-195
1.60322051922e-47
1.20746014501e-09
0.000303078374884
0.0386984996871
0.0769183818124
0.0996674467795
0.110495473227
0.115231579632
0.11733754425
0.118615754961
0.119658317689
0.120659608097
0.121634469492
0.122565511075
0.123501040347
0.12441977324
0.125322608227
0.126192553241
0.127073294721
0.127942815231
0.128781050144
0.129633905067
0.130479833996
0.131317500123
0.132126562398
0.132952623655
0.133768656418
0.134553572302
0.135351228195
0.136137016844
0.136910903249
0.137641800622
0.138379752758
0.139095159005
0.139785745932
0.140448496346
0.141054423839
0.141652299184
0.142211739687
0.142729457659
0.143203961847
0.143634683502
0.143987937333
0.144320250061
0.144599346941
0.144824688622
0.144995465934
0.145111662098
0.145196519807
6.45488961966e-195
6.45488961966e-195
6.45488961966e-195
6.45488961967e-195
6.45488961967e-195
6.45488961967e-195
6.45488961967e-195
6.45488961967e-195
6.45488961967e-195
6.45488961967e-195
6.45488961967e-195
6.45488961968e-195
6.45488961968e-195
6.45488961968e-195
6.45488961972e-195
6.45488962222e-195
6.45488976671e-195
6.45489808995e-195
6.45535703104e-195
6.48077422686e-195
6.82989672233e-195
2.11787988531e-31
1.52961172309e-06
0.00609354280024
0.0490032764222
0.0822191174429
0.100588591489
0.109043921284
0.112799534617
0.11459775389
0.115853183317
0.116976188775
0.118053119495
0.119083059672
0.120110101391
0.121114625361
0.122080770589
0.123048731024
0.124004040685
0.124922866577
0.125850144379
0.12676895421
0.127653620804
0.128550541971
0.129440580004
0.130296448689
0.131165601411
0.132025547044
0.13285029137
0.133686764837
0.134510035727
0.135316339122
0.136080021523
0.136847228761
0.137589787792
0.138307755294
0.138967706549
0.13962144921
0.140238201645
0.140815446878
0.141350877149
0.141840462872
0.142252529239
0.142644565097
0.142984072986
0.143271143435
0.143503063423
0.143679113585
0.143799263281
0.143884890637
6.4548896196e-195
6.4548896196e-195
6.4548896196e-195
6.4548896196e-195
6.4548896196e-195
6.4548896196e-195
6.45488961961e-195
6.45488961961e-195
6.45488961961e-195
6.45488961961e-195
6.45488961961e-195
6.45488961961e-195
6.45488961961e-195
6.45488961962e-195
6.45488961974e-195
6.454889627e-195
6.45489004461e-195
6.45491417808e-195
6.45627945404e-195
6.51607937676e-195
1.34089586483e-73
8.13143927046e-18
1.63730738597e-05
0.0174171151644
0.0582814281337
0.0862018954699
0.100592939134
0.107200518734
0.110162311187
0.111803098098
0.113081905092
0.114272107618
0.115403617569
0.116528401068
0.117605647434
0.118679318323
0.119711801524
0.120743949931
0.121761852241
0.122738215812
0.123725126277
0.124698728096
0.125635323032
0.1265850633
0.127521671343
0.128425129421
0.129339884082
0.13024297921
0.131106997001
0.131980297597
0.132838819029
0.133678744877
0.134471040546
0.135268868855
0.136038093022
0.136778510293
0.137460734395
0.138135041102
0.13876995757
0.139364008922
0.139915811402
0.140390076858
0.140844208549
0.141245825548
0.141593932663
0.14188688071
0.142123986897
0.142304567232
0.142428336759
0.14251442527
6.45488961954e-195
6.45488961954e-195
6.45488961954e-195
6.45488961955e-195
6.45488961955e-195
6.45488961955e-195
6.45488961955e-195
6.45488961955e-195
6.45488961955e-195
6.45488961955e-195
6.45488961955e-195
6.45488961955e-195
6.45488961956e-195
6.45488961957e-195
6.4548896201e-195
6.45488965091e-195
6.45489140904e-195
6.45498825146e-195
6.4603409759e-195
6.57545082484e-195
8.93528106642e-73
3.24518318334e-13
0.0001059288343
0.0295601394551
0.0662629741868
0.088787396823
0.0998515795683
0.104962160649
0.107410087231
0.108961261636
0.110273349606
0.11153740376
0.112743749239
0.113938065919
0.115105452208
0.116227285964
0.117345467538
0.118421187498
0.119499425084
0.120534569513
0.121577004443
0.122603231108
0.123591983575
0.124590222005
0.125576043209
0.126522214433
0.127480511067
0.128423499021
0.129326142346
0.130237215809
0.131129119943
0.131973268514
0.132824112915
0.133646368978
0.134441555582
0.135178255969
0.135909313265
0.136602235042
0.13725471018
0.137835005457
0.138399394177
0.138914822015
0.139379142252
0.139790539158
0.140147088424
0.140448569565
0.140661071447
0.140847486595
0.140975187053
0.141062149326
6.45488961949e-195
6.45488961949e-195
6.45488961949e-195
6.45488961949e-195
6.45488961949e-195
6.4548896195e-195
6.4548896195e-195
6.4548896195e-195
6.4548896195e-195
6.4548896195e-195
6.4548896195e-195
6.4548896195e-195
6.4548896195e-195
6.45488961954e-195
6.45488962167e-195
6.45488974269e-195
6.45489660596e-195
6.4552707386e-195
6.47576530847e-195
6.77684657668e-195
1.05574356584e-34
5.78984730013e-07
0.00239339572695
0.041405175456
0.0725655483176
0.0901778833811
0.0985545541789
0.102486172116
0.104584742875
0.106097037844
0.107489262892
0.108807460008
0.110105967955
0.111352397772
0.112587037437
0.11377346307
0.114954570979
0.116090576912
0.117226185164
0.118319103783
0.119415468338
0.120495796877
0.121532425025
0.122579209562
0.123608649309
0.124598109686
0.125596358428
0.126552727963
0.127517024699
0.128461334198
0.129388165723
0.13026325206
0.131139902929
0.131989551623
0.132779198987
0.133565906615
0.134315787177
0.135027379065
0.135665993691
0.136290264239
0.136866821399
0.13739348048
0.137869590643
0.138290252336
0.138623078716
0.138930422019
0.139178986762
0.139369087665
0.139500370767
0.139587902939
6.45488961944e-195
6.45488961944e-195
6.45488961945e-195
6.45488961945e-195
6.45488961945e-195
6.45488961945e-195
6.45488961945e-195
6.45488961945e-195
6.45488961945e-195
6.45488961945e-195
6.45488961945e-195
6.45488961945e-195
6.45488961946e-195
6.4548896196e-195
6.45488962761e-195
6.45489007825e-195
6.45491561455e-195
6.45633895198e-195
6.51845674913e-195
1.29023781252e-73
6.28261804033e-18
1.36515166115e-05
0.0142924717342
0.0517212366296
0.0771360681242
0.0905051217221
0.0967994009475
0.0998766439378
0.101730600671
0.103276094142
0.104712923681
0.106120896428
0.107469161981
0.108782258776
0.110082327845
0.111330039282
0.112570924803
0.113765142879
0.114956840465
0.116102858075
0.117251893659
0.118378675293
0.119464085972
0.120557313177
0.121606101606
0.122661690573
0.123698275297
0.124689010535
0.125688580007
0.126666416204
0.127592681221
0.128523220474
0.129427256571
0.130270904746
0.131112536737
0.131918469206
0.132686350801
0.133383152459
0.134068432421
0.134705900486
0.135293866893
0.135798915492
0.136283586987
0.136712242324
0.1370823912
0.137394516368
0.137647698598
0.137841935523
0.137976697568
0.138064833216
6.4548896194e-195
6.4548896194e-195
6.4548896194e-195
6.4548896194e-195
6.4548896194e-195
6.45488961941e-195
6.45488961941e-195
6.45488961941e-195
6.45488961941e-195
6.45488961941e-195
6.45488961941e-195
6.45488961941e-195
6.45488961943e-195
6.4548896202e-195
6.45488966331e-195
6.45489207303e-195
6.4550222194e-195
6.46207772023e-195
6.60112166437e-195
1.11854643091e-72
3.43068746702e-12
0.000120467566282
0.0277061847432
0.060334444104
0.080058453487
0.0898672426562
0.0946056765662
0.0971132215232
0.0988912575554
0.100466875338
0.101970337825
0.103447733491
0.104864248322
0.10624020092
0.107603610947
0.108911161564
0.110208970442
0.111457121091
0.112702100668
0.113897655609
0.11509472048
0.11624485073
0.117398280116
0.118533391232
0.119620863537
0.120715038659
0.121762660785
0.122816800771
0.123848022031
0.124826094985
0.125808320369
0.126763190827
0.127660716545
0.128555250792
0.129416421832
0.130208796744
0.130994319712
0.131736377631
0.132433939829
0.133050326058
0.133649462709
0.134195735016
0.134687320619
0.135121672251
0.13549800712
0.135782000021
0.136042031365
0.136241159823
0.13637926247
0.136468147057
6.45488961936e-195
6.45488961936e-195
6.45488961936e-195
6.45488961936e-195
6.45488961937e-195
6.45488961937e-195
6.45488961937e-195
6.45488961937e-195
6.45488961937e-195
6.45488961937e-195
6.45488961937e-195
6.45488961937e-195
6.45488961944e-195
6.45488962335e-195
6.45488984056e-195
6.45490186938e-195
6.4555415914e-195
6.48927056494e-195
6.9279146199e-195
2.66710154945e-26
1.99499616568e-06
0.00441408987006
0.0401056943354
0.0667854362003
0.0814410217622
0.0885789608122
0.0921702080728
0.0943239580151
0.0960852310723
0.0977159562973
0.0992856141266
0.10082789739
0.102304921036
0.103741608712
0.105162729353
0.106525106354
0.107879092131
0.109178086677
0.11047059938
0.111714485298
0.112956159083
0.114149316014
0.115343816153
0.116490829866
0.117643766173
0.118743991677
0.119851489107
0.120936157059
0.121967828622
0.123002699463
0.124010939266
0.124959065543
0.125906767701
0.126820738988
0.127668095546
0.128507585947
0.129305542039
0.130059229203
0.13073417907
0.131393728538
0.132000738009
0.13255533757
0.13301825294
0.133459926809
0.133842366746
0.134165224028
0.134427971006
0.134629850235
0.134771185695
0.134860025121
6.45488961933e-195
6.45488961933e-195
6.45488961933e-195
6.45488961933e-195
6.45488961933e-195
6.45488961933e-195
6.45488961933e-195
6.45488961933e-195
6.45488961933e-195
6.45488961933e-195
6.45488961934e-195
6.45488961934e-195
6.45488961975e-195
6.45488964275e-195
6.45489093e-195
6.45496077822e-195
6.45871433204e-195
6.55609965982e-195
5.41354469969e-73
4.48540061286e-15
3.80572149935e-05
0.0182654199142
0.050502747456
0.0710251373205
0.0815480644416
0.0867443689232
0.0895860155892
0.09158783224
0.0933564277577
0.0950409891744
0.0966896992527
0.0982712279903
0.0998058911295
0.101297231745
0.102771367939