/*--------------------------------*- C++ -*----------------------------------*\
| =========                 |                                                 |
| \\      /  F ield         | foam-extend: Open Source CFD                    |
|  \\    /   O peration     | Version:     4.1                                |
|   \\  /    A nd           | Web:         http://www.foam-extend.org         |
|    \\/     M anipulation  |                                                 |
\*---------------------------------------------------------------------------*/
FoamFile
{
    version     2.0;
    format      ascii;
    class       volScalarField;
    location    "0.0005";
    object      p;
}
// * * * * * * * * * * * * * * * * * * * * * * * * * * * * * * * * * * * * * //

dimensions      [1 -1 -2 0 0 0 0];

internalField   nonuniform List<scalar> 
8400
(
66.7281849791
66.7281849791
66.7281849792
66.7281849792
66.7281849793
66.7281849793
66.7281849794
66.7281849794
66.7281849794
66.7281849795
66.7281849795
66.7281849796
66.7281849796
66.7281849797
66.7281849797
66.7281849797
66.7281849798
66.7281849798
66.7281849799
66.7281849801
66.7281849919
66.7281857026
66.7282272822
66.7306395863
66.8118186699
87.875573048
911.568050254
4536.7582012
21383.392253
57913.9775199
120145.415928
191134.595594
241757.227033
263893.849866
270322.738893
271672.271444
271793.379809
271652.217619
271469.222505
271298.38645
271123.540759
270989.839171
270865.779804
270754.836424
270656.428709
270569.090696
270491.862424
270424.556871
270369.021287
270323.569323
270292.178881
270245.077862
270227.290176
270209.564845
270199.428759
270198.674349
270202.842163
270208.629801
270213.65966
270224.652265
270255.57479
270273.506537
270321.213643
270360.836507
270396.607646
270432.033486
270473.216801
270521.957449
270578.920487
271568.098642
66.7281849663
66.7281849663
66.7281849663
66.7281849663
66.7281849664
66.7281849664
66.7281849664
66.7281849664
66.7281849664
66.7281849665
66.7281849665
66.7281849665
66.7281849665
66.7281849665
66.7281849665
66.7281849666
66.7281849666
66.7281849666
66.7281849666
66.7281849678
66.7281850378
66.7281892314
66.728428401
66.7423480609
66.9794905962
234.176504422
2046.87378278
9490.11268126
33398.2408433
81263.9396813
151336.962051
217764.2909
256497.659887
270731.436442
274701.576168
275968.328047
276592.193811
277081.181627
277530.146597
277958.806498
278371.141407
278767.259466
279148.102571
279512.00465
279858.837188
280188.678433
280502.324251
280800.707352
281086.049623
281357.761484
281613.807479
281853.582241
282079.292184
282291.962999
282494.522585
282688.0372
282866.663603
283027.578413
283179.408324
283301.476744
283439.385542
283567.93814
283685.876541
283787.928669
283873.507109
283948.720184
284018.14239
284084.384268
284147.845001
284929.922599
66.7281849608
66.7281849608
66.7281849608
66.7281849609
66.7281849609
66.7281849609
66.7281849609
66.7281849609
66.7281849609
66.7281849609
66.7281849609
66.7281849609
66.728184961
66.728184961
66.728184961
66.728184961
66.728184961
66.728184961
66.7281849611
66.7281849666
66.7281852862
66.7282039272
66.7292396988
66.7868460423
67.7739948017
727.561135873
3627.65199976
17697.0468677
50440.2145209
109738.129822
182605.495351
238937.50961
265393.599281
273692.946558
276045.983769
276976.33622
277604.235227
278152.205239
278663.514783
279146.930845
279605.725567
280039.70137
280449.519815
280835.640233
281198.840699
281540.06328
281859.445113
282159.705901
282440.931488
282704.706708
282952.530033
283184.384286
283399.047341
283599.867055
283790.131348
283967.46493
284128.588521
284272.762892
284404.346172
284527.922418
284644.063715
284756.732286
284835.74911
284923.029622
284995.822079
285063.417282
285126.517296
285181.835151
285227.681519
285852.122154
66.7281849578
66.7281849578
66.7281849578
66.7281849578
66.7281849579
66.7281849579
66.7281849579
66.7281849579
66.7281849579
66.7281849579
66.7281849579
66.7281849579
66.7281849579
66.7281849579
66.7281849579
66.7281849579
66.7281849579
66.728184958
66.7281849584
66.7281849848
66.7281865588
66.7282769424
66.7335394781
66.853955841
126.605225663
1188.70954798
6040.53748314
26714.2488287
68886.301442
136084.298249
206304.631553
251564.564726
269399.344995
274483.070847
276042.639969
276799.361063
277382.725438
277908.061443
278398.091492
278857.207105
279288.382581
279691.533679
280067.933661
280418.688958
280745.295198
281049.273901
281331.023618
281592.836588
281835.125131
282060.508514
282272.379068
282469.995964
282650.159954
282814.893968
282967.832599
283110.434814
283242.911866
283368.61537
283460.74925
283563.729268
283656.259497
283741.815228
283817.605175
283882.636208
283940.013479
283992.054119
284039.315542
284079.690962
284112.504854
284650.673074
66.728184956
66.728184956
66.728184956
66.728184956
66.728184956
66.728184956
66.728184956
66.728184956
66.728184956
66.728184956
66.728184956
66.728184956
66.728184956
66.728184956
66.728184956
66.7281849561
66.7281849561
66.7281849561
66.7281849577
66.7281850535
66.7281907794
66.7285182262
66.7476725336
67.046889352
304.272223564
2326.36263183
11118.0315257
36486.5419908
86889.8694111
158231.208892
222914.695262
258538.108751
270821.137652
274165.998692
275321.966167
275975.526046
276515.525176
277008.446287
277467.090455
277895.077787
278293.605442
278664.299033
279008.652956
279326.600128
279619.10478
279887.330961
280133.635842
280360.750874
280572.643046
280770.204551
280952.907517
281120.526035
281269.914298
281412.346567
281528.849181
281660.466724
281773.458585
281866.949587
281945.56518
282020.006578
282097.786204
282172.731628
282236.241795
282286.932014
282330.854228
282370.918674
282407.057741
282437.581191
282463.03799
282955.567708
66.7281849547
66.7281849547
66.7281849547
66.7281849547
66.7281849547
66.7281849547
66.7281849547
66.7281849548
66.7281849548
66.7281849548
66.7281849548
66.7281849548
66.7281849548
66.7281849548
66.7281849548
66.7281849548
66.7281849548
66.7281849549
66.7281849591
66.7281852075
66.7281998321
66.7290213814
66.7755437229
67.3548764484
617.395011661
3260.89073168
15985.1827326
46676.8401332
103785.308827
176275.546874
234250.460953
262153.497753
270870.440593
273241.419952
274166.908976
274750.676312
275250.017469
275705.730632
276127.213321
276517.941882
276880.580824
277215.783776
277525.625652
277811.367267
278075.161905
278316.418569
278536.757453
278739.059561
278925.103527
279104.188693
279249.109567
279399.972006
279531.334827
279650.935359
279763.12473
279866.643872
279960.363509
280040.264132
280108.258118
280171.614108
280240.223106
280286.771197
280344.139282
280384.659494
280416.821343
280445.937832
280472.968913
280495.34514
280511.698389
280965.161034
66.7281849538
66.7281849538
66.7281849539
66.7281849539
66.7281849539
66.7281849539
66.7281849539
66.7281849539
66.7281849539
66.7281849539
66.7281849539
66.7281849539
66.7281849539
66.7281849539
66.7281849539
66.7281849539
66.7281849539
66.7281849541
66.7281849641
66.7281855721
66.7282217512
66.7303407359
66.8082214287
84.0839782695
884.684604401
4405.55569174
20924.816479
57143.931633
119410.250682
190944.656948
241907.573392
263805.492078
270138.216946
271901.541816
272650.791074
273197.221911
273649.595389
274068.32898
274454.106507
274811.119541
275139.957253
275443.492377
275723.578839
275980.657105
276220.246267
276420.654809
276623.425599
276802.996237
276968.200853
277118.859926
277258.036147
277385.326242
277498.919864
277601.629668
277695.908356
277790.384993
277880.937199
277927.262669
277987.086814
278041.536969
278093.704806
278140.759131
278177.66277
278203.71533
278223.391781
278241.539912
278259.611478
278275.764335
278288.403161
278720.32278
66.7281849532
66.7281849532
66.7281849532
66.7281849532
66.7281849532
66.7281849532
66.7281849532
66.7281849532
66.7281849532
66.7281849532
66.7281849532
66.7281849532
66.7281849532
66.7281849532
66.7281849532
66.7281849533
66.7281849533
66.7281849537
66.7281849796
66.7281865265
66.7282754519
66.7334472125
66.853572623
124.946509093
1173.81378432
5941.86265515
26346.2839686
67872.9083575
133968.280539
202924.320304
247075.478929
264163.195401
268862.048583
270213.746317
270850.992518
271324.206351
271740.661977
272122.461572
272473.42641
272796.990017
273094.315302
273366.695274
273616.181458
273843.649887
274050.47998
274240.365433
274414.060858
274571.626571
274714.381892
274844.320845
274963.792569
275077.253069
275161.825043
275255.310272
275332.048621
275400.404192
275460.558659
275515.330269
275565.505719
275612.257357
275652.339746
275690.187075
275698.10323
275719.52832
275729.530572
275738.221208
275747.521357
275757.733154
275767.833827
276184.460682
66.7281849527
66.7281849527
66.7281849527
66.7281849527
66.7281849527
66.7281849527
66.7281849527
66.7281849527
66.7281849527
66.7281849527
66.7281849527
66.7281849527
66.7281849527
66.7281849527
66.7281849527
66.7281849528
66.7281849528
66.7281849538
66.7281850147
66.7281887084
66.7284024059
66.740944488
66.9626632759
216.967926782
1940.2379239
8774.52511177
32339.77414
78975.2895562
147616.224757
212825.376218
250377.331872
263630.788881
267146.207881
268208.566554
268757.215997
269182.80918
269558.03153
269898.313615
270212.104259
270500.010919
270763.376411
271004.08563
271223.004923
271421.424002
271600.407633
271764.087732
271912.935728
272053.532486
272160.096382
272274.1207
272372.975903
272463.961342
272545.295395
272615.092415
272671.034059
272720.483498
272775.557474
272807.20054
272852.210165
272883.537853
272907.552856
272926.632767
272940.803292
272948.835045
272953.030944
272955.532346
272957.196421
272957.278039
272955.317101
273343.023334
66.7281849523
66.7281849523
66.7281849523
66.7281849523
66.7281849523
66.7281849523
66.7281849523
66.7281849523
66.7281849523
66.7281849523
66.7281849523
66.7281849523
66.7281849524
66.7281849524
66.7281849524
66.7281849524
66.7281849524
66.7281849547
66.7281850943
66.7281933721
66.7286621085
66.7556144484
67.1396808881
392.171345063
2610.95569635
12516.308289
39082.9657206
90563.5327656
160438.463434
220930.495807
252292.603147
262460.11433
265063.151699
265901.736267
266367.212357
266740.027189
267070.696168
267371.180976
267645.368096
267897.731575
268126.184913
268333.510425
268521.914754
268695.45408
268833.44597
268977.229308
269103.403035
269217.881528
269317.611148
269405.05887
269480.948961
269549.725603
269618.754291
269656.111789
269703.175448
269739.151725
269774.534723
269810.256077
269838.272517
269853.785912
269865.216794
269852.365834
269862.48253
269868.607152
269869.620206
269862.818851
269850.665932
269836.329822
269822.550472
270184.109473
66.728184952
66.728184952
66.728184952
66.728184952
66.728184952
66.728184952
66.728184952
66.728184952
66.728184952
66.728184952
66.728184952
66.728184952
66.728184952
66.728184952
66.728184952
66.728184952
66.7281849521
66.7281849569
66.7281852387
66.7282016677
66.7291159301
66.7801563357
67.4075004656
654.396893535
3339.24138382
16167.9622748
46746.5889375
102664.332591
172562.167898
227400.011369
253048.27614
260724.381518
262657.428765
263318.564228
263710.42177
264029.509331
264313.881938
264571.660194
264804.890863
265021.564635
265196.654801
265373.818065
265528.798214
265666.505518
265789.229461
265898.898963
265998.199584
266086.999941
266169.51388
266220.88647
266280.361312
266328.663192
266371.891273
266410.726742
266439.690906
266465.762411
266468.083184
266491.80203
266504.009966
266506.89653
266502.184496
266497.064934
266493.801676
266487.561376
266483.540469
266455.846854
266442.608894
266414.973498
266388.020511
266723.67021
66.7281849517
66.7281849518
66.7281849518
66.7281849518
66.7281849518
66.7281849518
66.7281849518
66.7281849518
66.7281849518
66.7281849518
66.7281849518
66.7281849518
66.7281849518
66.7281849518
66.7281849518
66.7281849518
66.728184952
66.7281849622
66.7281855834
66.728222348
66.7303572678
66.8101016856
83.4871902645
875.68636696
4320.91664425
20350.1277236
55353.2829887
115225.512311
183812.931546
232369.665666
252855.93269
258550.336538
259968.818724
260478.538765
260797.259264
261061.501199
261299.112779
261494.530608
261691.261548
261860.218744
262012.159824
262146.389807
262264.712072
262369.360293
262464.294277
262527.851464
262602.131375
262665.993184
262722.150276
262766.097113
262797.496215
262825.37736
262831.47459
262859.912049
262876.986777
262884.506555
262884.144763
262884.438516
262859.893316
262854.843179
262842.067896
262827.846391
262812.348818
262792.958662
262769.094672
262741.704302
262711.037666
262678.683589
262647.181406
262957.463708
66.7281849515
66.7281849515
66.7281849515
66.7281849515
66.7281849515
66.7281849515
66.7281849515
66.7281849516
66.7281849516
66.7281849516
66.7281849516
66.7281849516
66.7281849516
66.7281849516
66.7281849516
66.7281849516
66.728184952
66.7281849785
66.7281865434
66.7282757279
66.7333965319
66.8546283168
121.617193966
1145.12224233
5721.76330586
25388.8035483
65171.14908
128289.436518
194097.909584
235959.331748
251864.63425
255983.404173
257000.679014
257389.848687
257626.068722
257838.186354
258021.208623
258182.099866
258324.551748
258448.298086
258556.033725
258655.575464
258722.427898
258797.036918
258853.758499
258901.038919
258937.763453
258976.068611
258988.314804
259015.079063
259026.6189
259026.559077
259023.410329
259025.789776
259006.810155
259006.029733
258993.595345
258974.261011
258946.232595
258920.092981
258874.247222
258852.062799
258825.263345
258796.828093
258761.815686
258720.606579
258676.451052
258632.91914
258592.104793
258876.246541
66.7281849514
66.7281849514
66.7281849514
66.7281849514
66.7281849514
66.7281849514
66.7281849514
66.7281849514
66.7281849514
66.7281849514
66.7281849514
66.7281849514
66.7281849514
66.7281849514
66.7281849514
66.7281849514
66.7281849525
66.7281850167
66.7281888471
66.7284082347
66.7411337311
66.9669222819
214.440002089
1904.38447089
8257.05777651
31464.9028422
76258.6748964
141610.559517
203230.572582
238213.742559
250147.293756
253056.492311
253755.598851
254040.330398
254222.186642
254371.786914
254497.699635
254607.418813
254703.427421
254767.742893
254838.729725
254890.982327
254933.313605
254969.39808
254977.023271
254996.529452
255002.562397
255004.12626
255000.441129
254998.604085
254970.341383
254955.218328
254931.267206
254902.455562
254881.161802
254838.600996
254813.689113
254780.194393
254738.638114
254691.846221
254642.458329
254602.485068
254546.039596
254512.864903
254468.863405
254417.604824
254361.208187
254305.091993
254251.653798
254503.884577
66.7281849512
66.7281849512
66.7281849512
66.7281849512
66.7281849512
66.7281849512
66.7281849512
66.7281849512
66.7281849512
66.7281849512
66.7281849512
66.7281849512
66.7281849512
66.7281849512
66.7281849512
66.7281849513
66.7281849541
66.7281851196
66.7281948001
66.7287360315
66.7593075615
67.1848058809
420.103511165
2676.36247268
12568.4211201
38874.0110369
88671.8259044
154970.782282
211020.688316
239199.593921
247816.057148
249776.755406
250252.453172
250434.56668
250550.677312
250642.512017
250701.52695
250763.264704
250807.779684
250840.600639
250865.517492
250862.54115
250871.880994
250865.695473
250853.734517
250838.20723
250798.318569
250775.668145
250741.29439
250705.392107
250670.029723
250612.033706
250570.33815
250521.031387
250470.039546
250423.95183
250357.881295
250311.327818
250256.27737
250198.559702
250135.12115
250070.257528
250016.113153
249945.090574
249895.632709
249836.320892
249771.281638
249703.532188
249637.765283
249858.295572
66.7281849511
66.7281849511
66.7281849511
66.7281849511
66.7281849511
66.7281849511
66.7281849511
66.7281849511
66.7281849511
66.7281849511
66.7281849511
66.7281849511
66.7281849511
66.7281849511
66.7281849511
66.7281849512
66.7281849578
66.7281853371
66.728206937
66.7293816132
66.7926046284
68.6829882392
730.150955536
3582.4885569
16968.5107783
47813.9134489
102312.713766
168034.946966
217252.332909
239006.031158
244959.246568
246225.79207
246509.223472
246601.723758
246633.01183
246663.717274
246678.239593
246680.355621
246675.038148
246643.446606
246625.264152
246593.011091
246559.68689
246501.131575
246458.497055
246405.727551
246354.460068
246281.004607
246225.033311
246158.25364
246092.004259
246028.29104
245944.980434
245879.254571
245805.156934
245732.241336
245666.245615
245581.012363
245515.741607
245441.000864
245361.954757
245283.48637
245214.861602
245128.340817
245063.283486
244990.141677
244915.261204
244839.114667
244763.529753
244953.851756
66.7281849509
66.7281849509
66.7281849509
66.728184951
66.728184951
66.728184951
66.728184951
66.728184951
66.728184951
66.728184951
66.728184951
66.728184951
66.728184951
66.728184951
66.728184951
66.7281849513
66.7281849713
66.7281861409
66.728252625
66.7320232192
66.8374146127
102.433022
1007.44760415
4937.79630113
22403.2464859
58517.0626609
117143.140599
180233.253202
221751.054388
237726.996718
241648.226917
242400.763979
242532.155267
242524.249841
242505.355566
242472.196441
242408.966128
242357.384425
242293.572821
242229.843875
242141.987163
242071.326466
241990.043936
241913.308022
241811.700028
241731.310942
241640.60925
241555.896235
241448.585988
241360.479079
241265.968171
241178.689669
241072.40731
240985.591004
240890.832917
240796.122934
240708.323258
240605.473539
240524.376473
240434.14192
240340.867805
240246.954159
240162.703733
240060.045183
239981.503818
239895.275925
239807.50173
239719.180398
239631.302483
239788.409847
66.7281849508
66.7281849508
66.7281849508
66.7281849508
66.7281849508
66.7281849508
66.7281849509
66.7281849509
66.7281849509
66.7281849509
66.7281849509
66.7281849509
66.7281849509
66.7281849509
66.7281849509
66.7281849519
66.7281850103
66.7281883931
66.7283775335
66.7391428438
66.9405534589
189.986223617
1683.81391897
7213.72279451
29322.8146081
71146.9161974
132638.742008
191126.706951
224448.535298
235540.44066
237962.960529
238327.031356
238325.16143
238249.468498
238134.11794
238038.23575
237933.682654
237822.445636
237690.401243
237576.247597
237458.345523
237321.81572
237203.025815
237079.472937
236959.985159
236822.233495
236703.992783
236584.381057
236447.434919
236329.598741
236207.642641
236095.458794
235964.858064
235855.921925
235740.764093
235625.379252
235518.172413
235397.020653
235298.52926
235190.811776
235080.707149
234970.575911
234871.594725
234752.375254
234659.462551
234561.620232
234463.709373
234363.059903
234261.462999
234383.435029
66.7281849507
66.7281849507
66.7281849508
66.7281849508
66.7281849508
66.7281849508
66.7281849508
66.7281849508
66.7281849508
66.7281849508
66.7281849508
66.7281849508
66.7281849508
66.7281849508
66.7281849508
66.7281849541
66.7281851437
66.728196064
66.7287982103
66.7621464333
67.220206988
434.41556351
2700.9279578
12334.0559044
38086.7074615
85751.7909676
148321.488435
200099.95049
225341.229586
232541.143854
233891.308174
234002.09711
233891.397059
233724.509029
233566.930346
233403.31444
233221.025608
233053.71255
232887.426111
232703.098519
232537.719178
232374.961326
232194.867142
232034.605873
231877.791425
231703.916051
231550.118145
231398.112608
231228.573457
231082.217431
230934.112308
230794.231324
230639.105743
230505.525006
230366.850504
230237.718379
230090.103912
229968.122971
229842.481186
229716.851276
229592.939514
229475.717429
229338.728628
229227.16895
229110.482436
228996.471424
228883.655156
228771.706192
228660.689135
228751.128371
66.7281849507
66.7281849507
66.7281849507
66.7281849507
66.7281849507
66.7281849507
66.7281849507
66.7281849507
66.7281849507
66.7281849507
66.7281849507
66.7281849507
66.7281849507
66.7281849507
66.7281849509
66.7281849604
66.7281855083
66.7282171722
66.7300084606
66.8084679873
77.1309014429
811.60750825
3909.96996266
17994.1635829
49142.089307
102217.449918
163371.71643
206804.153727
224589.339589
228915.875002
229539.266311
229452.699805
229226.782747
229005.051067
228758.668921
228533.164152
228290.095799
228067.44481
227851.517753
227617.750095
227407.290903
227200.071932
226977.103545
226778.923379
226583.224622
226374.133121
226187.595335
226004.007762
225803.906944
225628.464614
225453.619525
225288.41255
225106.842036
224949.758165
224788.602244
224637.046088
224470.855133
224328.951041
224182.666169
224038.372549
223904.035412
223749.944674
223622.081134
223488.805468
223357.103685
223227.803247
223101.128015
222976.788868
222854.400004
222911.733799
66.7281849506
66.7281849506
66.7281849506
66.7281849506
66.7281849506
66.7281849506
66.7281849506
66.7281849506
66.7281849506
66.7281849506
66.7281849506
66.7281849506
66.7281849506
66.7281849506
66.7281849513
66.7281849918
66.7281872985
66.728314359
66.735337315
66.8863653408
137.512193605
1228.7310648
5888.18983969
25243.76748
62793.8256773
119946.891312
176865.670528
210899.993877
222481.354144
224793.208502
224923.470546
224686.690944
224369.848064
224067.68321
223770.88118
223462.621869
223180.844073
222884.31446
222618.207685
222334.543696
222075.804406
221822.298308
221557.44681
221319.628468
221088.382407
220843.002722
220623.628523
220407.976849
220178.524104
219975.81064
219778.538395
219567.367349
219382.795086
219194.1957
219016.053044
218824.243138
218659.55928
218492.400912
218333.340775
218154.96226
218003.388651
217851.2695
217701.69679
217553.480449
217406.331493
217268.816835
217111.898164
216982.267945
216848.564328
216873.72618
66.7281849505
66.7281849505
66.7281849505
66.7281849505
66.7281849505
66.7281849505
66.7281849505
66.7281849505
66.7281849505
66.7281849505
66.7281849505
66.7281849505
66.7281849505
66.7281849506
66.7281849534
66.7281851122
66.728194117
66.7286849917
66.7555745625
67.1506033977
354.831461357
2457.98466244
10559.6679802
34808.3887512
79018.7738393
138040.684542
187864.121378
212419.990403
219251.340223
220249.301201
220090.32727
219718.331779
219341.695855
218950.619962
218586.939907
218214.431865
217873.102248
217520.121364
217196.32552
216858.762369
216556.051797
216265.054611
215957.508953
215680.276278
215409.807015
215129.096376
214877.560194
214610.75432
214373.342247
214138.776164
213919.404876
213684.206169
213474.242455
213269.492458
213048.660019
212857.637196
212666.866162
212487.857333
212289.20661
212117.162771
211943.386165
211774.434642
211610.893269
211455.495558
211278.991631
211127.585967
210973.803007
210824.318347
210678.190266
210669.291308
66.7281849505
66.7281849505
66.7281849505
66.7281849505
66.7281849505
66.7281849505
66.7281849505
66.7281849505
66.7281849505
66.7281849505
66.7281849505
66.7281849505
66.7281849505
66.7281849507
66.7281849612
66.7281855524
66.7282190569
66.7300865239
66.8115871805
76.8340710237
804.519448058
3841.13981904
17356.2235371
47275.8949141
97657.3561394
155315.007159
195653.49121
211685.032868
215180.323139
215400.577906
215013.566357
214562.652524
214093.068238
213636.414824
213209.558512
212774.795432
212375.373525
211970.58968
211599.573596
211218.988589
210869.203978
210529.235674
210182.182728
209871.273025
209547.75317
209253.946762
208967.991634
208672.023379
208405.442715
208148.205813
207878.841202
207640.492102
207407.395976
207159.823812
206940.183063
206722.575208
206517.014606
206296.894933
206107.618748
205916.606475
205725.807813
205516.974273
205352.497475
205184.258674
205006.498102
204831.726201
204664.397923
204503.875972
204346.929955
204304.117393
66.7281849504
66.7281849504
66.7281849504
66.7281849504
66.7281849504
66.7281849504
66.7281849504
66.7281849504
66.7281849504
66.7281849504
66.7281849504
66.7281849504
66.7281849504
66.7281849514
66.728185008
66.7281881697
66.7283589261
66.7376159825
66.9200463529
158.360641494
1361.82111153
6238.5607043
26014.2721966
63148.2725936
117857.414367
170218.376604
199871.37418
209111.568008
210541.447194
210278.623242
209749.088015
209212.185511
208668.034364
208139.292548
207654.196785
207164.789335
206711.911358
206254.347602
205836.322394
205409.667436
205020.55237
204621.431152
204255.242979
203903.183621
203544.700876
203223.164311
202887.311213
202583.641433
202288.285295
201983.97883
201711.043184
201446.47747
201170.056693
200921.281173
200681.43051
200428.464438
200208.196148
199987.400507
199778.34159
199550.505514
199351.707354
199152.238255
198957.131392
198763.82708
198574.484998
198368.585227
198205.611562
198040.025156
197870.393977
197792.732024
66.7281849504
66.7281849504
66.7281849504
66.7281849504
66.7281849504
66.7281849504
66.7281849504
66.7281849504
66.7281849504
66.7281849504
66.7281849504
66.7281849504
66.7281849505
66.7281849556
66.7281852406
66.7282010228
66.7290403598
66.773293917
67.348809794
507.724735056
2862.21265309
12451.8927174
37714.4899722
82232.5780685
137940.742996
181406.781803
200709.151293
205220.626262
205476.097409
204940.896084
204300.612727
203689.444552
203079.506464
202489.126998
201943.139313
201397.280038
200893.989528
200386.253118
199919.376304
199450.424998
199019.84888
198583.635063
198184.855543
197778.262842
197412.833653
197034.581449
196689.978966
196357.374398
196016.009382
195707.641619
195410.31139
195103.161468
194826.961342
194558.438337
194278.793876
194029.855897
193783.714283
193549.751829
193301.43957
193081.954604
192861.157979
192652.424378
192425.029167
192227.08075
192028.674155
191836.620274
191649.33294
191463.928308
191280.221331
191164.581004
66.7281849503
66.7281849503
66.7281849503
66.7281849503
66.7281849503
66.7281849503
66.7281849503
66.7281849503
66.7281849503
66.7281849503
66.7281849503
66.7281849503
66.7281849509
66.728184981
66.72818667
66.7282783132
66.7332031031
66.860975956
108.717797994
1026.86894553
4853.91682236
20987.4528072
53372.2624757
103857.093481
155953.330051
188063.369068
198848.880643
200507.879476
200115.028911
199408.856642
198700.307819
198000.717052
197331.529566
196684.439363
196080.52564
195479.685954
194902.891704
194374.297736
193847.238415
193359.894342
192866.898228
192418.848928
191963.275955
191549.793491
191126.984573
190739.347949
190365.087371
189986.990058
189648.274023
189295.351303
188976.527061
188668.93017
188349.03345
188063.059523
187781.679482
187516.763715
187236.69638
186987.610561
186739.228461
186503.720715
186252.777358
186031.369164
185808.631886
185590.9304
185380.073707
185181.892775
184965.134406
184775.520917
184581.517965
184435.36059
66.7281849503
66.7281849503
66.7281849503
66.7281849503
66.7281849503
66.7281849503
66.7281849503
66.7281849503
66.7281849503
66.7281849503
66.7281849503
66.7281849503
66.7281849537
66.7281851406
66.7281954343
66.7287401823
66.7573649427
67.1759382109
343.870143601
2386.93845807
9215.54183454
32657.0028513
73114.0477801
126082.928178
169766.111334
190236.040238
195117.308819
195244.709024
194528.433975
193718.149979
192921.571241
192171.374853
191437.603985
190736.327901
190059.089758
189433.169627
188810.706389
188235.803389
187667.423002
187121.701984
186618.065948
186112.84629
185653.106211
185186.919331
184754.699295
184337.910058
183919.768408
183544.33796
183158.487103
182806.243966
182465.314751
182116.342314
181799.529008
181495.716359
181181.164624
180897.591273
180619.324709
180326.958979
180071.748627
179820.744538
179576.825391
179342.609334
179092.189362
178869.705277
178645.824401
178428.871169
178217.844793
178011.40848
177808.712227
177633.010857
66.7281849502
66.7281849502
66.7281849502
66.7281849502
66.7281849502
66.7281849502
66.7281849502
66.7281849502
66.7281849502
66.7281849502
66.7281849502
66.7281849507
66.7281849739
66.7281862796
66.7282575479
66.7320636547
66.8464621223
95.0065817209
932.277102354
4341.9772094
18718.5699293
48701.5313864
96104.7981944
146220.772599
178014.094792
188770.37177
190241.820484
189640.999841
188752.558599
187862.002687
187005.79016
186182.222842
185411.52448
184657.197672
183938.276192
183246.697886
182605.204699
181968.224183
181381.659051
180800.806757
180243.257714
179733.382744
179222.309272
178747.896397
178289.628225
177829.553171
177412.588618
176988.911735
176608.023472
176213.969353
175855.085335
175508.962688
175152.608808
174832.637957
174525.011054
174204.423698
173913.93679
173627.2799
173356.251325
173070.746061
172818.858017
172565.956311
172319.436926
172077.206656
171848.127863
171603.191601
171390.919723
171177.272425
170966.843736
170761.926175
66.7281849502
66.7281849502
66.7281849502
66.7281849502
66.7281849502
66.7281849502
66.7281849502
66.7281849502
66.7281849502
66.7281849502
66.7281849503
66.7281849537
66.7281851399
66.7281952894
66.7287273553
66.7563245783
67.1673115137
323.912871805
2297.57732924
8507.83312487
31142.553576
69685.015022
120004.64791
161451.318367
180664.267648
184939.139079
184749.008977
183819.291432
182828.14688
181870.428442
180956.409549
180082.432197
179249.340952
178448.988348
177704.886001
176976.391658
176278.8527
175628.844913
174986.824374
174394.263345
173812.419549
173253.79402
172735.000911
172212.238722
171733.560935
171250.165631
170807.613387
170386.960661
169963.726563
169581.478419
169183.382059
168820.893911
168471.001509
168112.962591
167789.597298
167470.767022
167168.776155
166853.224568
166570.87283
166291.035119
166025.267721
165744.344774
165493.579579
165241.316311
164996.630081
164759.621338
164530.073783
164314.204926
164079.103097
163856.001549
66.7281849502
66.7281849502
66.7281849502
66.7281849502
66.7281849502
66.7281849502
66.7281849502
66.7281849502
66.7281849502
66.7281849502
66.7281849507
66.7281849814
66.7281866669
66.7282765785
66.7329808395
66.861813449
102.159181249
972.894126782
4501.5301804
18961.193647
48594.0688217
94250.8239493
141283.307731
169934.551741
178964.190955
179788.916271
178902.465318
177802.3529
176746.84959
175734.862283
174765.902237
173866.67211
172995.336813
172162.109479
171363.384458
170594.460318
169886.857727
169188.294916
168539.403234
167903.14668
167292.831472
166728.961595
166164.658187
165646.613606
165123.916757
164647.389924
164165.98595
163725.050144
163303.087363
162876.519408
162489.435127
162089.397802
161727.123466
161379.288458
161019.113731
160692.173165
160368.542286
160064.524741
159747.777491
159465.308465
159184.853427
158912.434593
158654.036318
158377.966223
158130.552263
157883.547995
157643.597339
157411.308854
157185.647729