/*--------------------------------*- C++ -*----------------------------------*\
| =========                 |                                                 |
| \\      /  F ield         | foam-extend: Open Source CFD                    |
|  \\    /   O peration     | Version:     4.1                                |
|   \\  /    A nd           | Web:         http://www.foam-extend.org         |
|    \\/     M anipulation  |                                                 |
\*---------------------------------------------------------------------------*/
FoamFile
{
    version     2.0;
    format      ascii;
    class       volScalarField;
    location    "0.0005";
    object      rho;
}
// * * * * * * * * * * * * * * * * * * * * * * * * * * * * * * * * * * * * * //

dimensions      [1 -3 0 0 0 0 0];

internalField   nonuniform List<scalar> 
8400
(
0.00101999409811
0.00101999409811
0.00101999409811
0.00101999409811
0.00101999409811
0.00101999409811
0.00101999409811
0.00101999409811
0.00101999409812
0.00101999409812
0.00101999409812
0.00101999409812
0.00101999409812
0.00101999409812
0.00101999409812
0.00101999409812
0.00101999409812
0.00101999409812
0.00101999409812
0.00101999409812
0.0010199940983
0.00101999410877
0.00101999471996
0.00102003015708
0.00102120033739
0.00103556069591
0.00114355458171
0.00157691904898
0.00270669343907
0.00491749558261
0.00826008246659
0.0118081589858
0.0142319032445
0.0152587194224
0.0155419482681
0.0155902756869
0.0155819425871
0.0155619064654
0.0155402995069
0.0155194681359
0.0154997715044
0.0154806030444
0.0154616796488
0.0154430450288
0.0154245483493
0.0154060221586
0.0153873561763
0.0153684949634
0.0153493882359
0.015329975561
0.0153104288187
0.0152906874009
0.0152702453506
0.0152492286609
0.0152280775863
0.0152068530979
0.0151854843229
0.0151640134117
0.0151428705909
0.0151226371573
0.0151039263749
0.0150868147245
0.0150707342875
0.0150558686324
0.0150428475301
0.0150320043611
0.015023666682
0.0150180615833
0.0150153637056
0.0150575386407
0.00101999409793
0.00101999409793
0.00101999409793
0.00101999409793
0.00101999409793
0.00101999409793
0.00101999409793
0.00101999409793
0.00101999409793
0.00101999409793
0.00101999409793
0.00101999409793
0.00101999409793
0.00101999409793
0.00101999409793
0.00101999409793
0.00101999409793
0.00101999409793
0.00101999409793
0.00101999409795
0.00101999409898
0.0010199941604
0.00101999765695
0.00102020088244
0.00102363782318
0.00105916231875
0.00126617357007
0.00193359564897
0.00345751292811
0.00617889255452
0.009791947538
0.0130332576301
0.0148597227331
0.0155146108939
0.0156922659097
0.0157422547734
0.0157631623661
0.0157772570773
0.0157889498382
0.0157991142123
0.0158078911444
0.0158152374174
0.0158210762111
0.0158253606098
0.0158280504275
0.0158291056842
0.0158285237086
0.0158263323315
0.0158225483028
0.0158171712916
0.015810190302
0.0158016212051
0.0157916174137
0.0157804611535
0.0157683417621
0.0157552920058
0.0157413491943
0.01572668407
0.0157119667071
0.0156977669923
0.0156839237038
0.0156705092756
0.0156578266033
0.0156460384162
0.0156354782655
0.0156265867775
0.0156197412317
0.0156151142955
0.0156127837544
0.0156451035539
0.00101999409785
0.00101999409785
0.00101999409785
0.00101999409785
0.00101999409785
0.00101999409785
0.00101999409785
0.00101999409785
0.00101999409785
0.00101999409785
0.00101999409785
0.00101999409785
0.00101999409785
0.00101999409785
0.00101999409785
0.00101999409785
0.00101999409785
0.00101999409785
0.00101999409785
0.00101999409793
0.00101999410257
0.00101999437249
0.00102000935373
0.00102084149414
0.00103087751511
0.00111209934561
0.00146862708607
0.0024522463295
0.00446322035988
0.0076695236499
0.0113158205876
0.0140109178876
0.0152447173138
0.0156237599451
0.0157267922501
0.0157643217937
0.015787088788
0.0158054528162
0.0158213993288
0.015835258607
0.0158470628713
0.0158568204124
0.0158645415053
0.0158702265286
0.0158738699969
0.0158754754907
0.0158750618734
0.0158726891717
0.0158684839389
0.0158625515165
0.0158549278156
0.0158456967414
0.0158350574686
0.0158232465423
0.0158104526936
0.0157967664508
0.0157822556845
0.0157671734516
0.0157519756489
0.0157370774635
0.0157226833818
0.0157091753522
0.015696760087
0.015685196366
0.0156748219974
0.0156661874079
0.0156594304825
0.0156546048222
0.0156518202209
0.0156774292317
0.00101999409781
0.00101999409781
0.00101999409781
0.00101999409781
0.00101999409781
0.00101999409781
0.00101999409781
0.00101999409781
0.00101999409781
0.00101999409781
0.00101999409781
0.00101999409781
0.00101999409781
0.00101999409781
0.00101999409781
0.00101999409781
0.00101999409781
0.00101999409781
0.00101999409782
0.0010199940982
0.00101999412122
0.00101999544163
0.00102007236434
0.00102181316465
0.00104313838798
0.00118980931185
0.00172420608864
0.00303940376649
0.00550159894959
0.00901738005445
0.0124706408267
0.0146119693059
0.0154370756702
0.0156663146054
0.0157313354589
0.0157597410991
0.0157795054497
0.015795959416
0.0158101053637
0.0158220808946
0.0158318668564
0.0158394661088
0.0158449050365
0.0158482096053
0.0158494085313
0.0158485340194
0.0158456160376
0.0158407251662
0.0158340297891
0.015825706018
0.0158158394499
0.0158044866118
0.0157917528337
0.0157778510142
0.0157631086077
0.0157477916161
0.0157319930788
0.0157160960733
0.0157004399068
0.0156848976625
0.0156697487838
0.0156554290053
0.0156420671145
0.0156298817414
0.0156192140089
0.0156103374528
0.0156033237585
0.0155981337746
0.0155948241971
0.0156164004709
0.00101999409778
0.00101999409778
0.00101999409778
0.00101999409778
0.00101999409778
0.00101999409778
0.00101999409778
0.00101999409778
0.00101999409778
0.00101999409778
0.00101999409778
0.00101999409778
0.00101999409778
0.00101999409778
0.00101999409778
0.00101999409778
0.00101999409778
0.00101999409778
0.00101999409781
0.00101999409921
0.00101999418309
0.00101999898083
0.00102027945963
0.00102461875914
0.00106743862476
0.00130059639241
0.00202663453683
0.00364797399213
0.00648563032875
0.0101431009549
0.0132892196422
0.0149654072323
0.0155302639354
0.0156788499961
0.0157236951558
0.0157456999202
0.0157617764127
0.0157749907104
0.0157859532115
0.0157947842093
0.0158014932948
0.0158060591429
0.0158084707791
0.0158087447157
0.0158069076517
0.0158030116138
0.0157971618446
0.015789510501
0.0157802387201
0.0157694888024
0.0157572537131
0.0157435151493
0.0157285221348
0.0157129918906
0.0156972735387
0.0156808304032
0.0156634909324
0.0156457019589
0.0156281078121
0.0156113495823
0.0155956304262
0.0155808237621
0.0155669059195
0.0155541690051
0.0155430223544
0.015533724867
0.0155263389697
0.0155208529086
0.0155173388337
0.0155369723114
0.00101999409776
0.00101999409776
0.00101999409776
0.00101999409776
0.00101999409776
0.00101999409776
0.00101999409776
0.00101999409776
0.00101999409776
0.00101999409776
0.00101999409776
0.00101999409776
0.00101999409776
0.00101999409776
0.00101999409776
0.00101999409776
0.00101999409776
0.00101999409777
0.00101999409783
0.00101999410144
0.00101999431419
0.00102000625701
0.00102068131628
0.00102905798095
0.00109964341094
0.00142387935574
0.00234367954926
0.00426405952638
0.00739897211632
0.0110720093315
0.0138735153412
0.0151824933939
0.0155794296232
0.015680144855
0.0157118697298
0.0157283561531
0.0157403846966
0.0157497987859
0.015756985726
0.0157620368502
0.0157649923361
0.0157659072828
0.015764825764
0.0157617509884
0.0157566991913
0.0157497453123
0.0157409932811
0.0157305744437
0.0157186213641
0.0157055055178
0.0156913553579
0.0156757287776
0.0156587382276
0.0156409715459
0.0156227913267
0.0156043194803
0.0155855227267
0.0155665648975
0.0155479309143
0.0155301488367
0.0155137299189
0.0154986355547
0.0154842966271
0.0154709331684
0.0154592094682
0.0154494111515
0.0154415908276
0.0154356627554
0.0154316159531
0.0154493797716
0.00101999409775
0.00101999409775
0.00101999409775
0.00101999409775
0.00101999409775
0.00101999409775
0.00101999409775
0.00101999409775
0.00101999409775
0.00101999409775
0.00101999409775
0.00101999409775
0.00101999409775
0.00101999409775
0.00101999409775
0.00101999409775
0.00101999409775
0.00101999409775
0.0010199940979
0.00101999410689
0.00101999464037
0.00102002585095
0.00102114898765
0.00103488011791
0.00113931826685
0.00156385506767
0.00268043446537
0.00488263495893
0.00824406675631
0.0118426516348
0.014299747025
0.0153220452739
0.0156061234444
0.0156758632307
0.0156977566604
0.0157084998589
0.0157157448083
0.0157208871182
0.0157239420792
0.015724959243
0.0157240207458
0.0157212100949
0.0157165082379
0.0157098519917
0.0157016126784
0.0156920236797
0.0156805872929
0.0156672262611
0.0156523773779
0.0156363070088
0.0156191132978
0.0156008711412
0.0155817616477
0.0155620159009
0.0155419620667
0.0155218054104
0.0155017658903
0.0154819787858
0.0154623182416
0.0154433184461
0.0154254734839
0.0154086872437
0.0153930213833
0.0153787414809
0.0153662293049
0.0153557680406
0.0153474257696
0.0153411248303
0.015336843107
0.0153536505765
0.00101999409774
0.00101999409774
0.00101999409774
0.00101999409774
0.00101999409774
0.00101999409774
0.00101999409774
0.00101999409774
0.00101999409774
0.00101999409774
0.00101999409774
0.00101999409774
0.00101999409774
0.00101999409774
0.00101999409774
0.00101999409774
0.00101999409774
0.00101999409775
0.00101999409813
0.00101999412079
0.00101999542235
0.00102007111314
0.00102180864463
0.00104306605727
0.00118955522761
0.00172412766503
0.00304163991972
0.00550955756913
0.0090352110829
0.0124928564838
0.0146180943078
0.0154143314837
0.01561935857
0.0156667246766
0.0156800701971
0.0156854800135
0.0156879881254
0.0156884987491
0.0156871324772
0.0156839094467
0.0156788765347
0.0156720639058
0.0156634700663
0.0156531396652
0.0156411731878
0.0156276556041
0.0156126452746
0.0155962258699
0.0155785044267
0.0155596195229
0.0155397708984
0.0155193853024
0.0154985660659
0.0154769157203
0.0154545994044
0.0154321440695
0.0154099032425
0.0153881645461
0.015367116065
0.0153469251614
0.0153277446707
0.0153099703092
0.0152937668385
0.0152788478435
0.015265530565
0.0152543192134
0.0152453067777
0.015238535451
0.0152340599314
0.0152502460597
0.00101999409773
0.00101999409773
0.00101999409773
0.00101999409773
0.00101999409773
0.00101999409774
0.00101999409774
0.00101999409774
0.00101999409774
0.00101999409774
0.00101999409774
0.00101999409774
0.00101999409774
0.00101999409774
0.00101999409774
0.00101999409774
0.00101999409774
0.00101999409775
0.00101999409865
0.00101999415315
0.00101999729758
0.00102018130258
0.0010234047251
0.00105725056836
0.0012585537068
0.00191618531033
0.00343218925572
0.00615187790888
0.00978497427514
0.0130485379702
0.0148588079734
0.0154734676461
0.0156202683204
0.0156510125931
0.0156571463827
0.0156571239269
0.0156544970034
0.0156499906774
0.015643774149
0.0156359459533
0.0156265508307
0.0156155533143
0.0156029227014
0.0155887099415
0.015573009226
0.0155559114729
0.0155375183995
0.015518150045
0.0154978802994
0.0154763342245
0.0154537129209
0.0154304682201
0.0154066300468
0.0153822358417
0.015357608205
0.015333195581
0.0153095749341
0.0152868529349
0.0152644921964
0.0152426599361
0.0152219872847
0.015202735816
0.0151850183761
0.015168979983
0.0151548583711
0.015142894553
0.0151332169151
0.0151258271855
0.0151207227396
0.0151356239583
0.00101999409773
0.00101999409773
0.00101999409773
0.00101999409773
0.00101999409773
0.00101999409773
0.00101999409773
0.00101999409773
0.00101999409773
0.00101999409773
0.00101999409773
0.00101999409773
0.00101999409773
0.00101999409773
0.00101999409773
0.00101999409773
0.00101999409773
0.00101999409776
0.00101999409981
0.00101999422104
0.00102000108067
0.00102039517488
0.0010259676828
0.00107778747001
0.00134224100098
0.00213661544529
0.00386749595826
0.00682380569708
0.0105063437431
0.0135295305161
0.0150422378581
0.0155085110133
0.0156107959669
0.015627940822
0.0156270036741
0.0156213067383
0.0156134027114
0.0156038387217
0.0155927274005
0.015580110871
0.0155660515983
0.0155505525793
0.0155336292172
0.0155156137162
0.0154966059529
0.0154761803754
0.0154543626941
0.0154314484083
0.0154074843609
0.0153825798366
0.0153570182332
0.0153310303241
0.0153049267703
0.0152787501878
0.0152521798642
0.0152257011886
0.015200017298
0.0151751126188
0.0151508373064
0.0151273450324
0.0151053175227
0.015085204995
0.0150667449833
0.0150500126544
0.0150352475625
0.0150224435768
0.0150117529666
0.0150034093524
0.0149975785687
0.0150112966678
0.00101999409772
0.00101999409772
0.00101999409772
0.00101999409772
0.00101999409772
0.00101999409773
0.00101999409773
0.00101999409773
0.00101999409773
0.00101999409773
0.00101999409773
0.00101999409773
0.00101999409773
0.00101999409773
0.00101999409773
0.00101999409773
0.00101999409773
0.0010199940978
0.0010199941019
0.00101999434114
0.00102000764789
0.00102074989502
0.00102983145549
0.00110481080355
0.00144266549461
0.00239027366458
0.00435314729265
0.00752827251361
0.0112009874169
0.0139458832872
0.0151822292371
0.0155272217087
0.0155938174742
0.015598641563
0.0155904850739
0.015578774627
0.0155652412876
0.0155502532074
0.0155338971604
0.015516453721
0.0154980199283
0.0154781226968
0.0154567213913
0.015434139311
0.0154104786242
0.015385802666
0.0153602256819
0.0153338400344
0.0153068712468
0.0152793600277
0.0152510174674
0.0152221389924
0.0151931893064
0.0151641957174
0.0151352446541
0.0151069405805
0.0150796571299
0.0150530244047
0.0150270382683
0.0150020372587
0.0149784133778
0.0149566528692
0.0149368854101
0.0149190820441
0.0149036115879
0.0148905586501
0.0148794782381
0.0148704360758
0.0148638530925
0.0148763168244
0.00101999409772
0.00101999409772
0.00101999409772
0.00101999409772
0.00101999409772
0.00101999409772
0.00101999409772
0.00101999409772
0.00101999409772
0.00101999409772
0.00101999409772
0.00101999409772
0.00101999409772
0.00101999409772
0.00101999409772
0.00101999409772
0.00101999409772
0.00101999409788
0.00101999410708
0.00101999465074
0.00102002619165
0.00102117753229
0.00103511438183
0.00114043695743
0.00156731267119
0.00268854719573
0.00489807716859
0.00826774339122
0.0118665474086
0.0143022311666
0.0152861744007
0.0155322964868
0.0155697318087
0.0155631401099
0.0155473919826
0.0155290633949
0.0155096263348
0.0154893126429
0.0154676686411
0.0154446932915
0.0154206478755
0.0153955825495
0.0153695162219
0.0153424379505
0.0153146572929
0.0152863363055
0.0152571331808
0.015227116803
0.0151965169977
0.0151652459507
0.0151334162309
0.0151017292196
0.0150705660611
0.0150395031501
0.0150085114183
0.0149778679681
0.0149477686487
0.0149188611552
0.0148915000053
0.0148653297952
0.0148405133875
0.0148175104127
0.0147964555426
0.0147774440751
0.0147605734626
0.0147459701398
0.0147337784198
0.0147241163906
0.0147170680537
0.0147282622018
0.00101999409772
0.00101999409772
0.00101999409772
0.00101999409772
0.00101999409772
0.00101999409772
0.00101999409772
0.00101999409772
0.00101999409772
0.00101999409772
0.00101999409772
0.00101999409772
0.00101999409772
0.00101999409772
0.00101999409772
0.00101999409772
0.00101999409773
0.00101999409811
0.00101999412109
0.0010199954293
0.00102007052906
0.00102182477526
0.00104310004294
0.00118952740102
0.00172400312544
0.00304237796962
0.0055113650516
0.00904044044347
0.0124969680637
0.0146011534779
0.0153586400554
0.0155247523178
0.0155381485456
0.0155209045909
0.0154977528691
0.01547273543
0.0154465434533
0.0154195043236
0.0153916402757
0.0153629724751
0.015333507726
0.0153034926328
0.015272997651
0.0152415599341
0.0152091412536
0.0151760444084
0.0151424353849
0.0151087575367
0.0150751061114
0.015040840601
0.0150059197284
0.0149709098325
0.0149362058658
0.0149023401349
0.0148694391581
0.0148369685829
0.0148049673409
0.014773915454
0.0147440953588
0.0147160739762
0.0146901972095
0.014666159293
0.0146439793668
0.0146238662741
0.0146058732505
0.0145901977327
0.0145770708216
0.0145666457918
0.0145589844712
0.0145689476907
0.00101999409772
0.00101999409772
0.00101999409772
0.00101999409772
0.00101999409772
0.00101999409772
0.00101999409772
0.00101999409772
0.00101999409772
0.00101999409772
0.00101999409772
0.00101999409772
0.00101999409772
0.00101999409772
0.00101999409772
0.00101999409772
0.00101999409773
0.00101999409868
0.00101999415535
0.00101999739546
0.0010201848166
0.00102347553897
0.0010578781261
0.00126223070141
0.00192691033958
0.00346171467513
0.00619903033211
0.00983924806673
0.0130813828585
0.014841560911
0.0154016334897
0.0155041495916
0.0154982326137
0.0154710552363
0.0154395427034
0.0154069338304
0.0153737551936
0.0153400719669
0.0153061310308
0.0152719579776
0.0152370950356
0.0152015260919
0.0151654553878
0.0151291312727
0.0150926054871
0.0150554448018
0.0150177125119
0.0149797938251
0.0149418078882
0.0149040203644
0.0148664969412
0.0148288298606
0.0147912262172
0.0147542889357
0.0147185001756
0.0146839514215
0.0146501750001
0.0146172719828
0.0145856747034
0.0145556303237
0.0145275221384
0.0145019455051
0.0144790195348
0.0144581957451
0.0144394300848
0.0144229740831
0.0144089528949
0.0143976030254
0.0143891076491
0.0143975555093
0.00101999409771
0.00101999409771
0.00101999409771
0.00101999409771
0.00101999409771
0.00101999409771
0.00101999409771
0.00101999409771
0.00101999409771
0.00101999409771
0.00101999409771
0.00101999409771
0.00101999409771
0.00101999409771
0.00101999409771
0.00101999409771
0.00101999409776
0.00101999410019
0.00101999424232
0.00102000218342
0.00102045012986
0.00102663294896
0.00108260120693
0.00136141389372
0.0021862466327
0.00396525710012
0.00696972968835
0.0106549664665
0.0136092593875
0.0150249058767
0.0154171232342
0.0154693196529
0.0154465910712
0.0154097246133
0.0153702595353
0.0153304859852
0.0152907556927
0.0152506526552
0.0152101363707
0.0151694447494
0.0151288106293
0.0150881904137
0.0150471102446
0.0150055981113
0.0149639046274
0.0149223358026
0.0148809687707
0.0148393582189
0.014797570625
0.0147559552142
0.0147149043125
0.0146745338085
0.0146344283517
0.0145947550338
0.0145560403571
0.0145187886629
0.0144831285946
0.0144486377554
0.014415394601
0.0143837519984
0.0143540068275
0.014326578752
0.0143019760066
0.0142802018921
0.0142606850168
0.0142434435002
0.0142287389757
0.0142166326527
0.0142073145899
0.0142141658613
0.00101999409771
0.00101999409771
0.00101999409771
0.00101999409771
0.00101999409771
0.00101999409771
0.00101999409771
0.00101999409771
0.00101999409771
0.00101999409771
0.00101999409771
0.00101999409771
0.00101999409771
0.00101999409771
0.00101999409771
0.00101999409771
0.00101999409781
0.00101999410334
0.00101999441757
0.00102001147803
0.00102092799783
0.00103185897041
0.00111820236233
0.00149038925891
0.00250610130769
0.00456789494113
0.00782521014679
0.0114716150861
0.014071025126
0.0151564592514
0.0154102622228
0.0154222636739
0.0153846431121
0.01533846826
0.0152912365133
0.0152437994114
0.015196291165
0.0151489349287
0.0151020096466
0.0150555126909
0.0150089438084
0.014962247469
0.0149158625086
0.0148698256997
0.0148236526631
0.0147773628135
0.0147315390256
0.014686238557
0.0146409883675
0.0145958451316
0.0145512139636
0.0145075529608
0.0144649487132
0.0144229472492
0.0143817255648
0.0143418219827
0.0143037886798
0.0142677063553
0.01423297647
0.0141997276026
0.0141685649177
0.014139793348
0.0141138877795
0.0140908977719
0.0140702052769
0.0140518586034
0.0140362604848
0.0140234858634
0.0140135954821
0.0140190488723
0.00101999409771
0.00101999409771
0.00101999409771
0.00101999409771
0.00101999409771
0.00101999409771
0.00101999409771
0.00101999409771
0.00101999409771
0.00101999409771
0.00101999409771
0.00101999409771
0.00101999409771
0.00101999409771
0.00101999409771
0.00101999409772
0.00101999409801
0.00101999411526
0.0010199950949
0.00102005061794
0.00102157524026
0.00103993139052
0.00117018918403
0.0016635522364
0.00290831518374
0.00528171736574
0.00875576588012
0.012261850364
0.0144549827688
0.0152401294264
0.0153839550832
0.0153635989216
0.015312514546
0.0152569243087
0.0152009155516
0.0151453636714
0.0150906383341
0.0150363225563
0.0149823633741
0.014929193024
0.0148767818797
0.0148245915625
0.0147725773752
0.0147212352055
0.0146705617333
0.014620028071
0.0145696679559
0.0145200681293
0.0144713072917
0.0144229198803
0.0143750233564
0.0143283624053
0.0142830675615
0.0142385629428
0.0141949129203
0.0141527093642
0.0141125964366
0.0140747033035
0.0140383878997
0.0140036562534
0.0139710216242
0.0139408325747
0.0139136672555
0.0138895850463
0.0138678844793
0.0138485724766
0.0138320507652
0.0138183890335
0.0138076646047
0.013811430192
0.00101999409771
0.00101999409771
0.00101999409771
0.00101999409771
0.00101999409771
0.00101999409771
0.00101999409771
0.00101999409771
0.00101999409771
0.00101999409771
0.00101999409771
0.00101999409771
0.00101999409771
0.00101999409771
0.00101999409771
0.00101999409772
0.00101999409858
0.0010199941485
0.0010199969462
0.00102015666633
0.00102311075273
0.00105540250743
0.00125162656149
0.00189802700166
0.00341220999909
0.00611693041768
0.00974262991985
0.0129949562955
0.014752047804
0.0152787001182
0.0153390727726
0.0152935724506
0.0152298144846
0.015163931612
0.0150989631746
0.0150353268558
0.014972615279
0.014910939935
0.0148504569529
0.0147907115922
0.0147318954958
0.0146741649464
0.0146169731555
0.0145602795333
0.0145045698852
0.0144497973731
0.014395437816
0.0143418433444
0.0142893703391
0.0142375462683
0.0141864405411
0.0141367672172
0.0140886851893
0.0140416206964
0.0139956224523
0.0139512725572
0.013909191094
0.0138694931626
0.013831519488
0.013795254884
0.0137612314445
0.0137297684496
0.0137013499886
0.0136760243948
0.0136531998884
0.0136329839042
0.0136157303747
0.0136013512184
0.0135898170278
0.0135918049278
0.00101999409771
0.00101999409771
0.00101999409771
0.00101999409771
0.00101999409771
0.00101999409771
0.00101999409771
0.00101999409771
0.00101999409771
0.00101999409771
0.00101999409771
0.00101999409771
0.00101999409771
0.00101999409771
0.00101999409771
0.00101999409776
0.00101999410055
0.00101999426135
0.00102000311959
0.00102049278606
0.00102716074559
0.00108632147179
0.00137640937254
0.00222475285735
0.00404006973039
0.00707707854901
0.0107538871055
0.0136373050201
0.0149574578892
0.0152743939028
0.0152733706482
0.0152075595574
0.0151323080324
0.0150573215314
0.0149836751897
0.014911708125
0.0148415422603
0.0147726411252
0.0147051285812
0.0146391749264
0.0145742595032
0.0145105129845
0.0144481197204
0.0143865539399
0.0143260353796
0.0142668202523
0.014208334261
0.0141508402849
0.0140947255215
0.0140395078245
0.0139852568888
0.0139326884223
0.0138818900232
0.0138323124635
0.0137840500279
0.0137378932238
0.0136940957596
0.0136521738743
0.0136121517814
0.0135744163335
0.0135391322286
0.0135067994212
0.0134775365621
0.0134507734836
0.0134265759323
0.0134053407484
0.0133871146385
0.0133718816387
0.0133596327716
0.0133599852367
0.00101999409771
0.00101999409771
0.00101999409771
0.00101999409771
0.00101999409771
0.00101999409771
0.00101999409771
0.00101999409771
0.00101999409771
0.00101999409771
0.00101999409771
0.00101999409771
0.00101999409771
0.00101999409771
0.00101999409771
0.00101999409785
0.00101999410601
0.00101999457876
0.00102002135887
0.00102115809543
0.00103457687267
0.0011357382693
0.00155052337119
0.00264787459597
0.00482285543997
0.00816243565732
0.0117531086098
0.0141669968825
0.0150795049225
0.0152352281403
0.0151891745033
0.015106859194
0.0150208118149
0.0149362597323
0.014853920052
0.0147738569366
0.0146960066315
0.0146199316742
0.0145457292017
0.0144735596096
0.0144027182634
0.0143333447776
0.0142657165862
0.0141992296709
0.014134075652
0.0140704915968
0.0140078862301
0.0139465779426
0.0138869607221
0.013828515407
0.0137712950138
0.0137159720281
0.0136625675297
0.0136105374579
0.0135600806542
0.0135120032874
0.0134664131595
0.01342274823
0.0133810898387
0.0133418712902
0.0133055730405
0.0132723683303
0.0132416764961
0.0132135191987
0.0131883067132
0.0131661299738
0.0131470357771
0.0131310050333
0.0131180076856
0.013116644973
0.0010199940977
0.0010199940977
0.0010199940977
0.0010199940977
0.0010199940977
0.0010199940977
0.0010199940977
0.0010199940977
0.0010199940977
0.0010199940977
0.0010199940977
0.0010199940977
0.0010199940977
0.00101999409771
0.00101999409772
0.00101999409831
0.00101999413231
0.00101999600287
0.00102009928922
0.00102229238267
0.00104784958299
0.00121512764506
0.00179909994998
0.00320461141287
0.00577616542457
0.00934326557611
0.0126836429294
0.0145642902579
0.0151276005473
0.0151671473679
0.0150886062615
0.0149918637637
0.0148950951874
0.014800872704
0.0147095993074
0.0146213627967
0.0145357994133
0.0144527131103
0.0143719905941
0.0142935009736
0.0142167287842
0.0141418098741
0.0140689882703
0.0139976527212
0.0139280147064
0.0138602902795
0.0137938177482
0.0137288977884
0.0136659095361
0.013604330311
0.0135445116321
0.013486800016
0.0134306088291
0.0133760163931
0.0133238151585
0.0132741893657
0.0132265968267
0.0131810261628
0.0131381845407
0.0130982754151
0.0130608455225
0.0130259544617
0.0129938886257
0.0129646793081
0.0129384412403
0.012915639756
0.0128963509455
0.0128798593261
0.0128660945661
0.0128630096222
0.0010199940977
0.0010199940977
0.0010199940977
0.0010199940977
0.0010199940977
0.0010199940977
0.0010199940977
0.0010199940977
0.0010199940977
0.0010199940977
0.0010199940977
0.0010199940977
0.0010199940977
0.0010199940977
0.00101999409775
0.00101999410009
0.0010199942331
0.00102000148162
0.00102039810673
0.00102616685524
0.00107910583259
0.00135153705943
0.00216334301388
0.00392380892234
0.00690145901079
0.0105642203957
0.0134833970852
0.0148200870034
0.0151109086021
0.0150718207339
0.0149696554496
0.0148604479069
0.0147535556179
0.0146502325379
0.0145504991896
0.0144541922714
0.0143610858651
0.0142709849834
0.014183418596
0.01409841213
0.0140160059367
0.0139359082895
0.0138580962914
0.013782128148
0.0137081322718
0.0136362890109
0.013566309
0.0134982434058
0.0134318295049
0.0133671041757
0.0133046744058
0.0132445198884
0.0131860380254
0.013129640336
0.0130758432607
0.0130241951414
0.0129746998441
0.0129279985851
0.0128842130016
0.0128428185771
0.0128039268635
0.0127679652667
0.0127349455582
0.0127051743679
0.0126787207051
0.0126550607458
0.012634274583
0.0126166472333
0.0126021101625
0.012597239804
0.0010199940977
0.0010199940977
0.0010199940977
0.0010199940977
0.0010199940977
0.0010199940977
0.0010199940977
0.0010199940977
0.0010199940977
0.0010199940977
0.0010199940977
0.0010199940977
0.0010199940977
0.00101999409771
0.00101999409786
0.00101999410666
0.00101999460819
0.00102002262865
0.0010212054724
0.00103503792754
0.00113814274052
0.00155840860204
0.00266574856138
0.00485294154484
0.00819426262993
0.0117564913221
0.0141063408562
0.0149453286907
0.0150422636221
0.0149515975038
0.0148312790863
0.014710578265
0.0145941748585
0.0144821884012
0.0143741778497
0.0142701381682
0.0141698248138
0.0140729959944
0.0139794080983
0.0138888265956
0.0138007762798
0.0137153664494
0.0136327494022
0.0135525363519
0.0134746862516
0.0133988743898
0.0133252582475
0.0132540397771
0.0131846543381
0.0131174742895
0.0130528233098
0.0129900489248
0.012929451104
0.0128714666016
0.0128156394717
0.0127620255535
0.0127113122557
0.0126636714962
0.0126185684349
0.0125757338421
0.0125357991766
0.0124993465121
0.012465948798
0.0124353829896
0.0124075649858
0.0123825472065
0.0123608151827
0.0123424296332
0.0123272108535
0.0123205672376
0.0010199940977
0.0010199940977
0.0010199940977
0.0010199940977
0.0010199940977
0.0010199940977
0.0010199940977
0.0010199940977
0.0010199940977
0.0010199940977
0.0010199940977
0.0010199940977
0.0010199940977
0.00101999409772
0.00101999409855
0.00101999414522
0.00101999666496
0.00102013326222
0.00102279221534
0.00105270895747
0.00124022536988
0.0018699185947
0.00335440163109
0.00601399761276
0.00960180585085
0.0128276953634
0.0145291394079
0.0149642160083
0.0149338863427
0.0148095133644
0.0146748123379
0.0145433963389
0.0144172772884
0.014296330953
0.014180392966
0.0140691228243
0.0139619812026
0.0138587809799
0.0137592663714
0.0136631900414
0.0135702782049
0.0134803858436
0.0133931108996
0.0133085686841
0.0132269612042
0.0131478948
0.0130712375042
0.0129966770614
0.0129245403849
0.0128551671108
0.0127879569151
0.0127231019877
0.0126609091765
0.0126009064825
0.0125435470668
0.0124892517197
0.0124373922938
0.0123879288611
0.0123415511477
0.0122983756513
0.0122578404537
0.0122200260791
0.0121852527258
0.0121533139464
0.012124710296
0.0120998175212
0.0120779027552
0.012058972724
0.0120430810427
0.0120344757781
0.0010199940977
0.0010199940977
0.0010199940977
0.0010199940977
0.0010199940977
0.0010199940977
0.0010199940977
0.0010199940977
0.0010199940977
0.0010199940977
0.0010199940977
0.0010199940977
0.0010199940977
0.00101999409778
0.00101999410199
0.00101999433509
0.00102000672165
0.00102065851474
0.00102906167266
0.00109917510456
0.00142531891388
0.00234770867586
0.00427202431371
0.0073967014594
0.0110223597169
0.013682253393
0.0147496657083
0.0148980626148
0.0147918504873
0.0146451196022
0.0144980423973
0.0143568709649
0.0142221131311
0.0140930754664
0.0139694679576
0.0138510470882
0.0137373172209
0.013628042287
0.0135229573221
0.0134217396445
0.0133241046368
0.0132298389328
0.0131387723285
0.0130507739082
0.0129657285843
0.0128835204965
0.0128036865965
0.0127264237546
0.0126521117821
0.0125802023701
0.0125109030219
0.0124445164944
0.0123804666484
0.0123190526545
0.012260687369
0.0122048392747
0.0121514958904
0.0121013165519
0.0120543799026
0.0120100794823
0.0119684152123
0.0119301033233
0.0118952405346
0.0118631720194
0.0118339467795
0.0118079216918
0.0117849736666
0.0117650157348
0.0117480525413
0.0117374229586
0.0010199940977
0.0010199940977
0.0010199940977
0.0010199940977
0.0010199940977
0.0010199940977
0.0010199940977
0.0010199940977
0.0010199940977
0.0010199940977
0.0010199940977
0.0010199940977
0.00101999409771
0.00101999409816
0.00101999412325
0.00101999548216
0.0010200684588
0.00102192447042
0.00104342295005
0.00118897086822
0.00172018427348
0.00303076642831
0.00547835559432
0.00896442686041
0.0123328247759
0.0142659353933
0.0148029958412
0.0147714163028
0.0146207372305
0.0144580046102
0.0143003470038
0.0141502078
0.014007398745
0.0138709128144
0.0137402151716
0.013615190968
0.0134954339674
0.0133807312766
0.0132706497127
0.0131646692335