/*--------------------------------*- C++ -*----------------------------------*\
| =========                 |                                                 |
| \\      /  F ield         | foam-extend: Open Source CFD                    |
|  \\    /   O peration     | Version:     4.1                                |
|   \\  /    A nd           | Web:         http://www.foam-extend.org         |
|    \\/     M anipulation  |                                                 |
\*---------------------------------------------------------------------------*/
FoamFile
{
    version     2.0;
    format      ascii;
    class       volScalarField;
    location    "0.0005";
    object      T;
}
// * * * * * * * * * * * * * * * * * * * * * * * * * * * * * * * * * * * * * //

dimensions      [0 0 0 1 0 0 0];

internalField   nonuniform List<scalar> 
8400
(
226.836296599
226.836296599
226.836296599
226.836296599
226.836296599
226.836296599
226.836296599
226.836296599
226.836296599
226.836296599
226.836296599
226.836296599
226.836296599
226.836296599
226.836296599
226.836296599
226.836296599
226.836296599
226.836296599
226.836296599
226.836296602
226.836296779
226.836307139
226.836908156
226.857133662
294.415710634
2624.48560767
6026.7048605
11579.2357969
14073.3335103
15769.2748765
16843.9554676
17391.1191608
17601.5784784
17665.9918167
17684.966817
17693.2543932
17699.1144159
17704.4502537
17709.7871031
17714.4043135
17720.1087489
17726.0233875
17732.229866
17738.7996759
17745.7843197
17753.2263885
17761.1388311
17769.6082773
17778.6015685
17788.1748608
17797.3322008
17807.9263151
17818.9077028
17830.2700361
17842.00672
17853.980028
17866.1061477
17878.1313208
17889.9634719
17901.7395861
17912.0701418
17922.7376608
17932.4882523
17941.2016396
17948.7324658
17955.0238247
17959.9771576
17963.5210604
17973.8130766
226.836296596
226.836296596
226.836296596
226.836296596
226.836296596
226.836296596
226.836296596
226.836296596
226.836296596
226.836296596
226.836296596
226.836296596
226.836296596
226.836296596
226.836296596
226.836296596
226.836296596
226.836296596
226.836296596
226.836296596
226.836296614
226.836297658
226.836357247
226.839825285
226.898908579
767.81443929
4528.59920853
8452.64985225
12772.8371186
14891.3943399
16339.4102313
17182.063467
17564.6652672
17694.6070419
17731.8424491
17747.1444915
17756.6649455
17765.3380798
17773.9586954
17782.7222455
17791.6691429
17800.8219899
17810.2640086
17819.9558772
17829.8971161
17840.1322705
17850.7528095
17861.7623275
17873.1691787
17884.9572723
17897.1286099
17909.6361109
17922.5037423
17935.6332097
17948.9715618
17962.5054344
17976.0239714
17989.389751
18002.5756641
18014.5626333
18026.8924613
18038.6792744
18049.6494981
18059.6002471
18068.3786532
18075.9635787
18082.234329
18087.1224823
18090.5711853
18098.7659079
226.836296594
226.836296594
226.836296594
226.836296594
226.836296594
226.836296594
226.836296594
226.836296594
226.836296594
226.836296594
226.836296594
226.836296594
226.836296594
226.836296594
226.836296594
226.836296594
226.836296594
226.836296594
226.836296594
226.836296596
226.836296675
226.83630132
226.836559379
226.850911813
228.007504201
2249.16818964
5666.08905459
11035.8211079
13776.7596398
15600.7868999
16786.7946077
17413.4022051
17660.1038039
17734.9131337
17758.004624
17768.7976563
17777.4255251
17785.7654676
17794.1788767
17802.7702164
17811.6244247
17820.7202653
17830.068302
17839.691374
17849.6436425
17859.99727
17870.7000369
17881.7929331
17893.2616337
17905.132707
17917.3720502
17929.9484815
17942.8069759
17955.8880824
17969.1629622
17982.4840933
17995.7232979
18008.7821227
18021.5605268
18033.9418746
18045.8235806
18057.0784278
18066.6213309
18076.0302032
18084.3473362
18091.4937867
18097.400782
18101.9606182
18105.0981335
18111.8576356
226.836296594
226.836296594
226.836296594
226.836296594
226.836296594
226.836296594
226.836296594
226.836296594
226.836296594
226.836296594
226.836296594
226.836296594
226.836296594
226.836296594
226.836296594
226.836296594
226.836296594
226.836296594
226.836296594
226.8362966
226.836296992
226.836319511
226.837630655
226.867632001
421.282219297
3030.50384679
6588.28333406
12205.0186819
14509.0430927
16099.6083811
17064.9554682
17528.8320102
17691.5081423
17738.4401064
17755.4847897
17765.3996681
17774.1515046
17782.7513751
17791.4097702
17800.1926908
17809.2100596
17818.4425843
17827.9093972
17837.6372024
17847.6910783
17858.1479481
17868.9522219
17880.1340924
17891.6823512
17903.6071165
17915.9161101
17928.5460416
17941.3946479
17954.4117245
17967.5572982
17980.7175324
17993.7939432
18006.7061585
18018.4070529
18030.4666255
18042.0337908
18052.8856846
18062.8733499
18071.8866677
18079.8626804
18086.6811418
18092.2793668
18096.573358
18099.5084104
18105.4927858
226.836296593
226.836296593
226.836296593
226.836296593
226.836296593
226.836296593
226.836296593
226.836296593
226.836296593
226.836296593
226.836296593
226.836296593
226.836296593
226.836296593
226.836296593
226.836296593
226.836296593
226.836296593
226.836296594
226.836296617
226.836298044
226.836379626
226.84115186
226.91570076
990.017150531
4849.98772411
9250.59025882
12988.6540535
15043.4684266
16437.5948949
17230.6511067
17577.4458154
17689.1443487
17721.242627
17735.7272398
17745.6681533
17754.9680121
17764.2034152
17773.4905787
17782.9081218
17792.4802685
17802.2674361
17812.3241865
17822.6214874
17833.162548
17844.013003
17855.2605039
17866.8522458
17878.8118498
17891.1249858
17903.7396176
17916.6965025
17929.790557
17943.0296293
17955.5722349
17968.9603785
17982.1671605
17995.0163419
18007.4175915
18019.341452
18030.831639
18041.630135
18051.5220524
18060.3770459
18068.1969299
18074.8765383
18080.3348581
18084.5062425
18087.3577887
18092.951508
226.836296593
226.836296593
226.836296593
226.836296593
226.836296593
226.836296593
226.836296593
226.836296593
226.836296593
226.836296593
226.836296593
226.836296593
226.836296593
226.836296593
226.836296593
226.836296593
226.836296593
226.836296593
226.836296594
226.836296656
226.836300299
226.836504986
226.848095876
226.992434747
1946.53180571
5490.58805128
10692.8648914
13571.0511806
15439.6594949
16662.9507718
17319.8553935
17583.8622492
17664.799009
17690.024994
17703.8177193
17714.4014431
17724.553428
17734.6210268
17744.7135526
17754.9050406
17765.2565922
17775.7810107
17786.5519825
17797.5773477
17808.940457
17820.560502
17832.4378287
17844.7011652
17857.3010207
17870.2783115
17882.6853798
17896.0944822
17909.684516
17923.3590119
17937.0700137
17950.692147
17964.168696
17977.3071234
17989.9768506
18002.1074223
18013.6674559
18023.7306598
18033.6845805
18042.5677771
18050.3223632
18056.9489662
18062.3802846
18066.5177479
18069.3186922
18074.6380435
226.836296593
226.836296593
226.836296593
226.836296593
226.836296593
226.836296593
226.836296593
226.836296593
226.836296593
226.836296593
226.836296593
226.836296593
226.836296593
226.836296593
226.836296593
226.836296593
226.836296593
226.836296593
226.836296595
226.836296747
226.836305761
226.836833699
226.856237421
281.882417634
2577.82200916
5975.75316949
11510.3197603
14033.1286132
15739.0753449
16815.2715333
17359.5949966
17565.4711753
17626.5812843
17648.2441308
17661.4716423
17673.7989864
17684.8540499
17695.9037694
17706.9576844
17718.1983768
17729.5392618
17741.0106861
17752.681715
17764.5862236
17776.8023796
17788.5061535
17801.3305754
17814.3871536
17827.748489
17841.3960935
17855.2833988
17869.3531148
17883.5095753
17897.7414431
17911.9597614
17926.1459532
17940.1208438
17952.7270717
17965.7834354
17978.2564199
17990.056799
18001.0459919
18011.0920279
18020.061943
18027.8931053
18034.5465994
18039.9727678
18044.1198029
18046.9631711
18052.1576612
226.836296592
226.836296592
226.836296592
226.836296592
226.836296592
226.836296592
226.836296592
226.836296592
226.836296592
226.836296592
226.836296592
226.836296592
226.836296592
226.836296592
226.836296592
226.836296592
226.836296592
226.836296593
226.836296599
226.836296984
226.83631914
226.837607667
226.867536524
415.79201378
3006.26896382
6534.7953635
12128.1231059
14412.8449202
15973.165108
16916.1984582
17368.8176955
17528.9842695
17577.7193876
17597.6040896
17611.5878964
17624.2802641
17636.6269212
17648.8817724
17661.1109443
17673.3893444
17685.7480223
17698.2229937
17710.9484697
17723.90269
17737.0313106
17750.4235244
17764.0880914
17778.0513668
17792.2492707
17806.7030447
17821.4086705
17836.2421597
17850.3565939
17865.2555893
17880.0315088
17894.6757391
17909.0080837
17922.9432766
17936.3715104
17949.2907005
17961.4366663
17972.7317591
17982.1175951
17991.2962641
17999.2836215
18006.0636285
18011.5847563
18015.8034359
18018.6871459
18023.7972781
226.836296592
226.836296592
226.836296592
226.836296592
226.836296592
226.836296592
226.836296592
226.836296592
226.836296592
226.836296592
226.836296592
226.836296592
226.836296592
226.836296592
226.836296592
226.836296592
226.836296592
226.836296593
226.836296608
226.836297528
226.83635077
226.839475589
226.894716106
712.679618437
4364.84452852
7968.50760914
12636.7928651
14738.1667177
16158.8364889
16983.1057831
17354.9536605
17480.745866
17520.8847628
17539.8889944
17554.7037296
17568.6422841
17582.2727869
17595.7344793
17609.1874711
17622.645037
17636.1514423
17649.7979742
17663.5865785
17677.5404097
17691.6776566
17706.1364329
17720.8200324
17735.7611514
17750.0487453
17765.4068444
17780.8768888
17796.4809138
17812.118363
17827.7037874
17843.0891511
17858.2672509
17873.2626522
17886.9522785
17900.918903
17914.1517363
17926.5802107
17938.0905568
17948.6126229
17958.0118065
17966.2168961
17973.166069
17978.8000475
17983.0923331
17985.9912784
17990.941197
226.836296592
226.836296592
226.836296592
226.836296592
226.836296592
226.836296592
226.836296592
226.836296592
226.836296592
226.836296592
226.836296592
226.836296592
226.836296592
226.836296592
226.836296592
226.836296592
226.836296592
226.836296593
226.836296628
226.83629869
226.836415474
226.843130562
226.93881947
1263.91044957
5086.80055246
9710.60562505
13077.6382713
15019.3264447
16303.04641
17020.7101669
17324.5553443
17424.2883569
17457.5198543
17476.1952271
17491.8556698
17506.9200081
17521.7258444
17536.406073
17551.0564263
17565.7970195
17580.5229683
17595.3186659
17610.2623135
17625.383437
17639.9324418
17655.4170212
17671.0828355
17686.9960202
17703.0505549
17719.2686747
17735.5729991
17751.9437144
17768.4073785
17783.8605585
17799.9779554
17815.8256478
17831.2779941
17846.3377354
17860.8133698
17874.4830122
17887.2433454
17898.2154782
17909.0689299
17918.7827396
17927.2366551
17934.347466
17940.0558451
17944.3515145
17947.2402057
17952.0452175
226.836296592
226.836296592
226.836296592
226.836296592
226.836296592
226.836296592
226.836296592
226.836296592
226.836296592
226.836296592
226.836296592
226.836296592
226.836296592
226.836296592
226.836296592
226.836296592
226.836296592
226.836296593
226.836296664
226.836300757
226.836528542
226.849245094
227.00554585
2051.55742085
5517.36853614
10650.1585981
13478.3107999
15265.1345837
16418.0780723
17031.9892172
17278.4179825
17357.9332566
17387.5106487
17406.5704529
17423.4113125
17439.6886585
17455.7790724
17471.7801289
17487.7078155
17503.6630998
17518.8351597
17534.8677158
17551.0058679
17567.23204
17583.5677129
17600.0897983
17616.8235066
17633.7453152
17650.7926579
17667.1563495
17684.3440598
17701.5506235
17718.7253655
17735.7980726
17752.6047858
17769.1150725
17784.3388829
17799.962166
17814.8052233
17828.8705408
17842.0580373
17854.3107668
17865.4283918
17875.3428128
17884.0376979
17890.4518841
17896.3673586
17900.7196165
17903.6149782
17908.2943374
226.836296592
226.836296592
226.836296592
226.836296592
226.836296592
226.836296592
226.836296592
226.836296592
226.836296592
226.836296592
226.836296592
226.836296592
226.836296592
226.836296592
226.836296592
226.836296592
226.836296592
226.836296595
226.836296749
226.836305909
226.836837818
226.856705881
279.821328783
2557.63115657
5926.59707197
11341.1648666
13835.9009859
15477.1657811
16503.2868519
17021.8467973
17219.9345571
17284.3542134
17311.8608281
17331.6237798
17349.7520114
17367.4732655
17384.8994196
17401.4546682
17418.7823264
17435.8953925
17453.104375
17470.2828641
17487.5617641
17504.9841983
17522.4725503
17539.3531786
17557.1310153
17575.0392718
17593.041618
17611.0939551
17629.1545854
17647.2242937
17664.2791218
17682.1561696
17699.6931007
17716.7887174
17733.4239832
17749.5420036
17764.0241253
17778.521648
17792.1045213
17804.6546564
17816.0747465
17826.24913
17835.0575773
17842.4900489
17848.4591444
17852.9323139
17855.9151019
17860.4616669
226.836296592
226.836296592
226.836296592
226.836296592
226.836296592
226.836296592
226.836296592
226.836296592
226.836296592
226.836296592
226.836296592
226.836296592
226.836296592
226.836296592
226.836296592
226.836296592
226.836296592
226.836296599
226.836296989
226.836319209
226.83759504
226.867799546
404.69853694
2959.35391286
6419.64291775
11928.7826992
14171.7680891
15665.141876
16563.1897038
16993.9446384
17151.4761695
17204.4653123
17230.8182351
17251.7718277
17270.7413189
17289.8882421
17308.765287
17327.4276482
17346.0017184
17364.4389562
17382.8583733
17401.3510488
17419.0630846
17437.6297576
17456.1630526
17474.9274287
17493.7000611
17512.6512889
17530.861754
17549.8850738
17568.808443
17587.5961743
17606.276774
17624.8616508
17642.2156544
17659.9940213
17677.227211
17693.8064592
17709.5177326
17724.4628238
17737.5145041
17750.4239864
17762.1313382
17772.5704003
17781.5824577
17789.1129481
17795.1330369
17799.6507949
17802.659156
17807.0648708
226.836296592
226.836296592
226.836296592
226.836296592
226.836296592
226.836296592
226.836296592
226.836296592
226.836296592
226.836296592
226.836296592
226.836296592
226.836296592
226.836296592
226.836296592
226.836296592
226.836296592
226.836296608
226.836297563
226.836352222
226.839522738
226.895777224
703.984525547
4289.24785927
7540.17558888
12449.6421266
14483.3803792
15825.3759026
16599.8910926
16951.1401686
17074.2808552
17119.2614903
17144.6040233
17166.868047
17187.9580833
17208.6688894
17229.020638
17249.1509376
17269.0903598
17288.1977848
17307.9689601
17327.5849911
17347.2603243
17367.0375493
17386.022538
17405.807684
17425.5944223
17445.4777399
17465.3568185
17485.3289705
17504.3114162
17523.9902875
17543.4338136
17562.5638073
17581.4356414
17598.9285589
17616.784938
17633.8782335
17650.1016783
17665.3319482
17679.5205536
17692.7514905
17703.8657405
17714.5596612
17723.7542978
17731.4366004
17737.5467345
17742.1140269
17745.128172
17749.3473403
226.836296592
226.836296592
226.836296592
226.836296592
226.836296592
226.836296592
226.836296592
226.836296592
226.836296592
226.836296592
226.836296592
226.836296592
226.836296592
226.836296592
226.836296592
226.836296592
226.836296593
226.836296634
226.836299046
226.836433892
226.844050689
226.950062216
1348.01321042
5116.6621605
9589.50526394
12928.285439
14768.5018562
15958.6358269
16614.8411892
16895.1109454
16990.815834
17029.3972632
17055.3968093
17078.7987202
17101.4394421
17123.5636632
17144.7618563
17166.3063564
17187.6102961
17208.794189
17229.7927303
17250.0386333
17271.0471183
17291.8591531
17312.7283857
17333.6607949
17353.7208574
17374.6159972
17395.3940532
17416.1878744
17436.7914116
17456.3960399
17476.60091
17496.4819059
17515.9224971
17534.8070455
17552.2601994
17569.8130281
17586.5241016
17602.2358689
17616.8108192
17630.1953292
17642.3666709
17652.3285012
17661.7839495
17669.6280637
17675.849872
17680.45885
17683.4802596
17687.5217325
226.836296592
226.836296592
226.836296592
226.836296592
226.836296592
226.836296592
226.836296592
226.836296592
226.836296592
226.836296592
226.836296592
226.836296592
226.836296592
226.836296592
226.836296592
226.836296592
226.836296594
226.836296688
226.83630207
226.836594736
226.852346546
230.862136083
2246.00244068
5609.04583823
10672.1487038
13365.9076866
15020.2241239
16064.2031555
16607.234797
16826.127344
16901.0914398
16936.1607722
16962.8298669
16987.5564704
17010.9262961
17034.5098682
17057.7864409
17080.7748355
17103.4642891
17125.1978241
17147.6206055
17169.8009226
17191.948915
17213.2014318
17235.2352469
17257.1899572
17279.0900423
17300.1525854
17321.9056993
17343.4366557
17364.9366972
17386.1319245
17406.2050856
17426.7044417
17446.6781789
17466.1962158
17485.0007889
17502.0532169
17519.18251
17535.2176824
17550.0834589
17563.7706991
17576.2175316
17586.3252223
17595.860738
17603.8000156
17610.1477472
17614.8372647
17617.8783641
17621.7481107
226.836296592
226.836296592
226.836296592
226.836296592
226.836296592
226.836296592
226.836296592
226.836296592
226.836296592
226.836296592
226.836296592
226.836296592
226.836296592
226.836296592
226.836296592
226.836296592
226.836296597
226.836296888
226.836313453
226.837252884
226.863510808
341.837449353
2760.34333833
6114.62559966
11471.0969065
13770.4548515
15247.7435128
16138.6051017
16578.1326789
16744.9795785
16805.743087
16839.1721148
16866.9973081
16892.5121211
16918.1299212
16943.2962447
16967.2866393
16991.5952422
17015.6150488
17039.4273362
17062.2198911
17085.7152743
17108.9621362
17132.1975974
17154.4934603
17177.5498105
17200.3521383
17223.2123193
17244.9777015
17267.4917429
17289.6628242
17311.6193502
17332.3563646
17353.5158264
17374.0535369
17394.0050073
17413.2736073
17430.8196222
17448.2570873
17464.6237127
17479.8330854
17493.7520186
17506.3697259
17516.5264932
17526.1962661
17534.2270275
17540.6080828
17545.3299162
17548.3671718
17552.0323531
226.836296592
226.836296592
226.836296592
226.836296592
226.836296592
226.836296592
226.836296592
226.836296592
226.836296592
226.836296592
226.836296592
226.836296592
226.836296592
226.836296592
226.836296592
226.836296592
226.836296607
226.836297449
226.836344573
226.839026715
226.889207517
625.187756153
3875.65222105
6917.24336988
12140.8885368
14142.6015508
15438.849539
16186.075404
16530.3826743
16655.6084291
16706.4305487
16738.657046
16767.6600038
16795.5370416
16821.9572657
16848.5866628
16874.7255592
16900.4755792
16925.119492
16950.2718938
16975.1202588
16998.9514213
17023.4059437
17047.6528511
17071.80134
17094.9910079
17118.8687078
17142.5450937
17165.2220066
17188.4019013
17211.3139759
17234.060984
17255.4197947
17277.1034123
17298.2107585
17318.6053421
17338.2867838
17356.2181592
17374.0124017
17390.6499025
17406.0760247
17420.145675
17432.9610812
17443.2178273
17453.0359041
17461.1537656
17467.5838722
17472.2937306
17475.3056204
17478.746664
226.836296592
226.836296592
226.836296592
226.836296592
226.836296592
226.836296592
226.836296592
226.836296592
226.836296592
226.836296592
226.836296592
226.836296592
226.836296592
226.836296592
226.836296592
226.836296593
226.83629664
226.836299361
226.836449383
226.844757985
226.958882287
1389.30486141
5113.90616595
9343.40658279
12726.6402697
14480.6523659
15597.2422371
16204.3519772
16466.0677131
16559.5100818
16603.362033
16636.3472513
16666.7422845
16695.5124639
16724.2478746
16752.3826165
16779.2070471
16806.2657902
16833.0974379
16858.6692237
16884.6954517
16910.5939328
16935.3196517
16960.6545035
16985.8634104
17010.0274115
17034.6925855
17059.2463105
17082.6315261
17106.629798
17130.2865
17153.517602
17175.494532
17197.7307672
17219.2568638
17240.1710533
17259.3084724
17278.3962749
17296.4365199
17313.3678112
17329.0333144
17343.3193135
17355.1926202
17366.5768427
17376.3058512
17384.4838212
17390.9650366
17395.7320042
17398.7677127
17402.0124228
226.836296592
226.836296592
226.836296592
226.836296592
226.836296592
226.836296592
226.836296592
226.836296592
226.836296592
226.836296592
226.836296592
226.836296592
226.836296592
226.836296592
226.836296592
226.836296594
226.836296731
226.83630462
226.836750913
226.85629885
258.634371271
2424.21942393
5724.05372071
10711.8479673
13248.794742
14778.1680181
15714.4620616
16194.7007394
16386.2394451
16458.3703881
16498.6178848
16532.3348186
16563.4288052
16594.4405742
16623.9416459
16653.4326763
16681.7520958
16710.083659
16738.1678986
16764.9411762
16792.2101132
16819.1429383
16845.0359612
16871.3827704
16897.5016931
16922.5334189
16948.1760548
16973.5348428
16997.6768871
17022.2784816
17046.5985956
17070.4598357
17092.8307765
17115.5596927
17137.5982999
17158.8700638
17178.2695848
17197.6353923
17215.9171537
17232.9897228
17248.9007736
17262.279917
17275.3290193
17286.7468751
17296.5426692
17304.6650653
17311.1093877
17315.8583302
17318.8741002
17321.8955337
226.836296592
226.836296592
226.836296592
226.836296592
226.836296592
226.836296592
226.836296592
226.836296592
226.836296592
226.836296592
226.836296592
226.836296592
226.836296592
226.836296592
226.836296592
226.836296602
226.836297177
226.836328833
226.83807858
226.875706723
455.613586059
3057.24392354
6389.35576467
11635.6008269
13717.6824378
15026.8474611
15791.1047653
16156.3083547
16295.2029211
16353.0413873
16391.3687138
16426.1250993
16458.7563962
16491.1235938
16522.7535267
16552.9776067
16583.2772302
16612.3093689
16641.5467912
16669.5950249
16697.8854932
16725.8763858
16752.7234941
16780.0099844
16807.0626513
16832.9189189
16859.3442954
16885.4402295
16910.2472552
16935.5812174
16960.4345623
16983.9441091
17007.7291252
17030.8046617
17053.1515428
17073.8097952
17094.4641661
17114.0596496
17132.5506161
17148.8203789
17164.7196114
17179.2258846
17192.235318
17203.73027
17213.5888443
17221.843655
17227.2722229
17232.0677536
17235.0516872
17237.8594429
226.836296592
226.836296592
226.836296592
226.836296592
226.836296592
226.836296592
226.836296592
226.836296592
226.836296592
226.836296592
226.836296592
226.836296592
226.836296592
226.836296592
226.836296592
226.836296632
226.836298876
226.836421175
226.843120625
226.941540778
1142.51959435
4904.75464184
8432.22281955
12381.4507513
14127.1172799
15225.6824183
15828.8932911
16094.8312785
16195.4098112
16244.5027491
16283.4031454
16318.8596059
16353.606867
16386.8013113
16419.8041335
16451.3579189
16482.8854259
16513.148331
16543.4489481
16572.5987505
16601.9714747
16631.039153
16658.7290853
16687.0055509
16714.8664594
16741.4268167
16768.5526483
16794.4571828
16820.7514682
16846.61753
16872.1083823
16895.9990611
16920.2018315
16943.741573
16965.4112652
16987.2455379
17008.068727
17027.9190267
17045.4771214
17062.873372
17078.8221696
17093.3983563
17106.5239388
17118.0764793
17126.8452329
17135.0428672
17141.4583468
17146.1448098
17149.093143
17151.6587656
226.836296592
226.836296592
226.836296592
226.836296592
226.836296592
226.836296592
226.836296592
226.836296592
226.836296592
226.836296592
226.836296592
226.836296592
226.836296592
226.836296592
226.836296594
226.836296742
226.836305089
226.836770363
226.857075987
257.530225466
2403.24591165
5674.36009715
10451.3459873
13004.1888765
14476.7695533
15372.1445991
15829.1345766
16015.6283787
16089.601052
16135.1794687
16173.9949243
16211.4729707
16247.0380814
16281.6077632
16315.9062428
16348.6887563
16381.3875353
16412.8066255
16444.2426644
16474.3816736
16504.7812237
16534.6194271
16563.3023794
16592.3909114
16620.2257083
16648.4165092
16676.113994
16702.5713921
16729.4820756
16755.8736432
16780.7356604
16805.9757183
16830.5504359
16853.3100291
16876.2481956
16898.2388621
16919.2486531
16938.1311439
16956.9250424
16974.3534711
16990.3549387
17003.801506
17016.9605158
17028.4790722
17038.233603
17046.3033713
17052.6693627
17057.345344
17060.2771184
17062.6069741
226.836296592
226.836296592
226.836296592
226.836296592
226.836296592
226.836296592
226.836296592
226.836296592
226.836296592
226.836296592
226.836296592
226.836296592
226.836296592
226.836296592
226.836296606
226.836297394
226.836339937
226.838646303
226.884098238
522.377525962
3245.31121106
6454.30368154
11566.9422118
13544.2202609
14762.4283919
15461.9809759
15792.3845671
15920.7516617
15980.4777668
16024.1657868
16063.9859399
16102.8947299
16139.8883097
16175.7577322
16211.3778512
16245.3860408
16279.249819
16311.6248448
16344.1400574
16375.2207161
16406.48332
16436.4327802
16466.639499
16496.4103854
16524.8023384
16553.710559
16581.2234419
16609.1195171
16636.4557255
16662.2847006
16688.4718418
16714.0127465
16737.8407846
16761.7923784
16784.8810326
16806.0771349
16827.1840438
16847.102656
16865.9304852
16882.2345176
16898.306797
16912.8097133
16925.7981712
16937.1379795
16946.8602191
16953.7728923
16960.2421933
16964.9110079
16967.7702506
16969.8330363
226.836296592
226.836296592
226.836296592
226.836296592
226.836296592
226.836296592
226.836296592
226.836296592
226.836296592
226.836296592
226.836296592
226.836296592
226.836296592
226.836296593
226.836296664
226.836300596
226.836509714
226.847535345
226.990923259
1604.97896295
5179.20063495
9040.21304586
12396.0656713
13997.5669497
14976.5824395
15500.4212376
15726.8814864
15816.8052266
15869.2222362
15912.9553024
15954.0615916
15994.3487371
16032.6274103
16069.7532552
16106.545541
16141.6048479
16176.6060977
16209.9677998
16243.3757547
16275.3003018
16307.3964447
16338.0139864
16368.9783697
16398.4980294
16428.4645931
16456.9070678
16485.7709842
16514.097005
16540.9246131
16568.0501405
16594.5617545
16619.2981753
16644.2319611
16668.4017908
16690.6109379
16712.782131
16733.8859987
16753.8466034
16771.4898783
16788.8603593
16804.8133721
16819.277723
16831.1097172
16842.4102571
16852.0527006
16860.0514189
16866.3372317
16870.8751245
16873.6682896
16875.4236998
226.836296592
226.836296592
226.836296592
226.836296592
226.836296592
226.836296592
226.836296592
226.836296592
226.836296592
226.836296592
226.836296592
226.836296592
226.836296592
226.836296599
226.83629702
226.836319853
226.837546848
226.86938104
361.663390832
2767.6501344
6002.25022996
10869.2378835
13070.0934995
14363.066013
15118.4633403
15489.5511435
15640.0094562
15708.6888021
15757.7330647
15802.0620973
15845.1373739
15885.9467646
15925.4889591
15963.7267178
16001.6504824
16037.6552452
16072.7683319
16107.8214831
16141.3002185
16174.8555791
16206.7751592
16238.9485482
16269.6237014
16300.5991407
16330.0956477
16359.8756329
16389.1023789
16416.7953299
16444.8684565
16471.2361382
16497.8900928
16523.8168051
16547.8506157
16572.0679152
16595.3157536
16617.5879183
16637.565794
16657.4394518
16676.0473281
16693.373438
16708.0694445
16722.433459
16735.1532972
16746.2705183
16755.8418287
16763.7968128
16768.7715237
16773.2832598
16775.996383
16777.493452
226.836296592
226.836296592
226.836296592
226.836296592
226.836296592
226.836296592
226.836296592
226.836296592
226.836296592
226.836296592
226.836296592
226.836296592
226.836296593
226.836296639
226.836299204
226.836434926
226.843566692
226.947852865
1105.08001033
4797.36446675
7454.86220876
11946.2950703
13618.9324769
14634.1042056
15189.8228109
15438.3723481
15539.8173169
15597.7635165
15646.3225057
15691.9101343
15735.5687807
15778.2582889
15818.8264633
15858.072421
15896.1118299
15933.7966577
15969.6969992
16005.5192048
16039.6888805
16073.0378082
16106.4601907
16138.3251928
16170.4805585
16201.0438479
16231.7292585
16261.8872365
16290.3914947
16319.3390294
16346.5966412
16374.1345899
16400.9755646
16425.8574979
16450.9117608
16475.1515539
16497.2539364
16519.3682751
16540.3512335
16558.9113729
16577.3692686
16594.5023341
16610.2012328
16624.3987482
16635.8786519
16646.9280618
16656.2911609
16664.0422227
16670.0880256
16674.4453972
16677.1243983
16678.3947402
226.836296592
226.836296592
226.836296592
226.836296592
226.836296592
226.836296592
226.836296592
226.836296592
226.836296592
226.836296592
226.836296592
226.836296592
226.836296598
226.836296923
226.836314679
226.837262958
226.865764966
316.799651016
2622.50122995
5809.66479639
10386.4342902
12743.0920094
14052.3468717
14815.1051329
15199.2533228
15358.1397055
15432.759286
15486.8045023
15535.8191538
15582.5342705
15627.3193782
15670.4310647
15712.712067
15752.9065893
15791.7861604
15829.4869286
15866.9271167
15902.4852201
15938.0376961
15971.8973407
16004.9410168
16038.1378512
16069.722419
16101.5483726
16132.6326479
16162.0332312
16191.7895232
16219.8765652
16248.29168
16274.7715417
16301.5263014
16327.5124918
16351.3687608
16375.4729919
16398.6101702
16419.4574386
16440.170395
16459.7228901
16477.988351
16493.6606949
16509.1936592
16523.0914215
16535.4801692
16546.2608328
16555.5967517
16561.8908905
16567.8781889
16572.1429413
16574.7524626
16575.7514422
226.836296592
226.836296592
226.836296592
226.836296592
226.836296592
226.836296592
226.836296592
226.836296592
226.836296592
226.836296592
226.836296592
226.836296593
226.836296639
226.836299168
226.83643173
226.843307489
226.945703551
1041.96551056
4687.36400917
7067.32874587
11700.0348829
13370.6406621
14363.7184128
14908.5746217
15156.3714577
15260.9637664
15323.533319
15376.7080436
15426.654001
15474.3822729
15520.1661034
15564.1718435
15606.6782923
15647.5801728
15687.9697609
15726.3481568
15763.5357688
15800.4694999
15835.6325958
15870.7575423
15904.2358058
15936.8887844
15969.5463188
16000.5808028
16031.8536849
16061.4538012
16091.198483
16120.3241178
16147.6716358
16175.3060667
16200.9502575
16226.742368
16251.608444
16274.3409582
16297.2366123
16318.8866416
16339.4947324
16357.5227393
16375.5051157
16392.1278938
16407.3451043
16419.7590222
16431.9675791
16442.5105961
16451.5208894
16458.9319472
16464.7414168
16469.0087016
16470.2372181
16471.0820699
226.836296592
226.836296592
226.836296592
226.836296592
226.836296592
226.836296592
226.836296592
226.836296592
226.836296592
226.836296592
226.836296592
226.836296599
226.836297019
226.836319421
226.837491472
226.869589699
339.911527087
2678.31915166
5841.79061641
10282.169289
12590.8561235
13840.5317171
14564.9894225
14926.0668266
15078.9942417
15156.0711199
15214.5849768
15267.4941565
15318.4207765
15367.0675063
15413.644329
15459.1744115
15502.3332177
15543.879653
15584.0364667
15622.8458555
15661.3890615
15697.85328
15734.3046458
15768.8507813
15802.4907451
15836.2516778
15868.1335007
15900.3177178
15930.5696746
15961.1894928
15989.9591788
16019.0086209
16047.3356037
16073.6018815
16100.1768163
16124.6483343
16149.2988254
16172.9946442
16194.306753
16215.7300831
16235.8197137
16254.849913
16271.2106632
16287.5372587
16302.3811598
16315.7646345
16327.7412955
16336.7514971