/*--------------------------------*- C++ -*----------------------------------*\
| =========                 |                                                 |
| \\      /  F ield         | foam-extend: Open Source CFD                    |
|  \\    /   O peration     | Version:     4.1                                |
|   \\  /    A nd           | Web:         http://www.foam-extend.org         |
|    \\/     M anipulation  |                                                 |
\*---------------------------------------------------------------------------*/
FoamFile
{
    version     2.0;
    format      ascii;
    class       volVectorField;
    location    "0.0005";
    object      U;
}
// * * * * * * * * * * * * * * * * * * * * * * * * * * * * * * * * * * * * * //

dimensions      [0 1 -1 0 0 0 0];

internalField   nonuniform List<vector> 
8400
(
(16999.9999944 4.96141227236e-09 3.79916381011e-11)
(16999.9999944 5.03948528925e-09 3.78402542887e-11)
(16999.9999945 5.11605870057e-09 3.76893334222e-11)
(16999.9999945 5.19115457802e-09 3.75420196269e-11)
(16999.9999945 5.26479545071e-09 3.74058475551e-11)
(16999.9999945 5.33700418563e-09 3.72694950168e-11)
(16999.9999945 5.4078033621e-09 3.71357208574e-11)
(16999.9999945 5.47721611024e-09 3.70062462312e-11)
(16999.9999945 5.54526416233e-09 3.68802883793e-11)
(16999.9999945 5.61197027983e-09 3.67570047627e-11)
(16999.9999945 5.67735590428e-09 3.66353802016e-11)
(16999.9999946 5.74144288075e-09 3.65185141646e-11)
(16999.9999946 5.80425255471e-09 3.64046433053e-11)
(16999.9999946 5.86580637689e-09 3.6288257432e-11)
(16999.9999946 5.92612561115e-09 3.6184000419e-11)
(16999.9999946 5.98523078161e-09 3.60774951645e-11)
(16999.9999946 6.04314331106e-09 3.59738680469e-11)
(16999.9999946 6.09988619331e-09 3.58090560029e-11)
(16999.9999946 6.15565783549e-09 3.15914466107e-11)
(16999.9999946 6.22104931945e-09 -2.09623767757e-10)
(16999.9999946 6.91292370495e-09 -1.40958864028e-08)
(16999.9999915 4.05478012011e-08 -7.44137880661e-07)
(16999.9997994 1.97805866655e-06 -4.21673771439e-05)
(16999.9886184 1.33718337126e-05 -0.000548704761447)
(16999.0836223 0.00187301098502 -0.00540793407612)
(16964.2979538 -0.413370236394 -0.0568978642684)
(16608.8025268 -5.00327549298 -0.122400752177)
(14715.7352746 -21.7392974034 -0.0440862530262)
(11038.6151228 -42.9789573907 0.0370969785476)
(7206.25914426 -53.3279850507 0.0394590048709)
(4258.22806686 -44.9473170293 0.0264849137743)
(2431.26040371 -19.3539279698 0.0158779721605)
(1521.93289667 16.5746394872 0.00858498314167)
(1173.07650342 54.9289516586 0.00442331461313)
(1061.20955656 91.1756119957 0.00263933107831)
(1018.57051406 124.14806833 0.00203496571611)
(991.244828307 153.971770066 0.00181987274476)
(966.114556662 180.981350135 0.00170639403806)
(940.388234471 205.521566831 0.00161870649522)
(913.70612337 227.898705277 0.00153803556067)
(885.955773207 248.373285424 0.00145787785121)
(857.277855329 267.197155456 0.00137737425805)
(828.000879722 284.56454899 0.00129930349481)
(798.176258162 300.655227682 0.00122427317995)
(767.909266372 315.627696639 0.00115155219573)
(737.304190833 329.621997761 0.00108092179161)
(706.449589928 342.761595217 0.00101204358347)
(675.395671011 355.155750542 0.00094429786945)
(644.191038471 366.901072742 0.000876741640928)
(612.89736952 378.081133875 0.00080899657002)
(581.65275002 388.767285257 0.000739484436624)
(550.327588409 399.014722102 0.000663459694339)
(518.956513103 408.887013536 0.000578652313687)
(487.740993945 418.41240713 0.000485879898227)
(456.58664857 427.615659442 0.000382843392356)
(425.521433149 436.509627039 0.000264754787034)
(394.629172503 445.095993754 0.000126807548236)
(364.003781082 453.364348266 -3.66873870354e-05)
(333.652220301 461.292126355 -0.000231834969592)
(303.470109176 468.85541206 -0.000463561347288)
(273.516552636 476.004516499 -0.000742682902545)
(243.678567141 482.692293083 -0.00108855240356)
(214.093582551 488.878485937 -0.0015182979836)
(185.056374392 494.49616723 -0.00204949087738)
(156.432728904 499.488105392 -0.00270996863343)
(128.156799475 503.798429976 -0.00353563215532)
(100.234760499 507.373715683 -0.00456964926424)
(72.7315454357 510.163117451 -0.00586629383916)
(45.7554929467 512.121688812 -0.00745631613114)
(32.4934900778 513.192971501 -0.00891227785554)
(16999.9999964 3.20860653909e-09 -2.48927824266e-13)
(16999.9999964 3.26004507232e-09 -1.66247091516e-13)
(16999.9999964 3.31052404201e-09 -8.5033797635e-14)
(16999.9999964 3.36005702212e-09 -6.91082437788e-15)
(16999.9999964 3.4086576641e-09 6.9923328958e-14)
(16999.9999964 3.45633946234e-09 1.44339279439e-13)
(16999.9999964 3.50311568006e-09 2.1637566521e-13)
(16999.9999964 3.5489994891e-09 2.8649833513e-13)
(16999.9999964 3.59400376026e-09 3.54395327215e-13)
(16999.9999964 3.63814223384e-09 4.20570547966e-13)
(16999.9999964 3.68142799049e-09 4.84632110176e-13)
(16999.9999964 3.72387430525e-09 5.47052170076e-13)
(16999.9999964 3.76549419269e-09 6.08219227537e-13)
(16999.9999964 3.80630096375e-09 6.67011386222e-13)
(16999.9999964 3.84630766335e-09 7.23720613657e-13)
(16999.9999964 3.885526936e-09 7.79076467415e-13)
(16999.9999964 3.92397216114e-09 8.31052652565e-13)
(16999.9999964 3.96169237992e-09 8.30475617483e-13)
(16999.9999964 4.00091132035e-09 -2.24568182069e-12)
(16999.9999964 4.1766448122e-09 -1.80122788511e-10)
(16999.9999961 1.26691227948e-08 -1.01461932721e-08)
(16999.9999778 5.12577719594e-07 -5.22555016587e-07)
(16999.9988415 3.13030809915e-05 -2.8275138527e-05)
(16999.9359669 0.00160469082879 -0.000303942673901)
(16993.8361317 0.16729844714 -0.00382777275348)
(16898.9569889 1.05704244032 -0.0270915778888)
(16068.5369308 11.0949310407 -0.0409605208133)
(13325.0396446 42.8401986123 -0.00915407752555)
(9383.76186556 96.6472940018 0.0102915087375)
(5809.54252354 152.336199257 0.00959435388638)
(3303.37550253 201.806844079 0.00673476510465)
(1874.61203071 243.519749705 0.00428976266095)
(1232.52140005 277.817227397 0.0025432562206)
(1006.99307408 306.232899787 0.00157242985673)
(929.323404205 331.226155447 0.00118578299094)
(889.626271218 354.246712438 0.00106966508632)
(858.425972073 375.776220339 0.00103605853878)
(828.99415019 396.007318201 0.00101992263976)
(800.027785985 415.053858339 0.0010040746731)
(771.267151572 433.014149916 0.000984532517093)
(742.675013966 449.976822496 0.000960388627875)
(714.256528461 466.034663404 0.000932016188048)
(686.03441076 481.266483851 0.00090048454933)
(658.030848099 495.747561019 0.000866484630454)
(630.258904812 509.548098048 0.000830329251888)
(602.732138549 522.732493352 0.000792228654979)
(575.459485815 535.359531589 0.000752190759392)
(548.435324374 547.482230149 0.000709963406778)
(521.660838981 559.148527899 0.00066509876877)
(495.159839505 570.398021455 0.000617146141703)
(468.956539423 581.262675119 0.000565324660887)
(443.06183004 591.76597864 0.000508277957318)
(417.477697845 601.93204596 0.000444999836518)
(392.176258463 611.770216498 0.000374847950889)
(367.126034481 621.284231418 0.000296627984644)
(342.371101932 630.468400761 0.000208816478206)
(317.985807933 639.3075381 0.00010994250657)
(294.000055888 647.780179091 -1.32875634257e-06)
(270.472926373 655.855826857 -0.00012613241585)
(247.164631257 663.506236441 -0.000265386250912)
(224.018579212 670.700088436 -0.000420172913276)
(201.260951794 677.385912759 -0.000591393137121)
(178.911397436 683.52737504 -0.000778097714689)
(157.016569799 689.068145742 -0.00097779854891)
(135.548270605 693.966729837 -0.00118695090965)
(114.449122554 698.183988313 -0.0013991858073)
(93.6848855787 701.686080534 -0.00160433774137)
(73.2634743452 704.445265693 -0.00178764734662)
(53.2590983997 706.438944891 -0.00192018132106)
(43.5282809857 707.487935256 -0.00192856643114)
(16999.9999974 1.79465780432e-09 -1.64436030779e-12)
(16999.9999974 1.82473271273e-09 -1.63409180612e-12)
(16999.9999974 1.85428171896e-09 -1.6242913894e-12)
(16999.9999974 1.88331097596e-09 -1.61477240628e-12)
(16999.9999974 1.91182619562e-09 -1.60521981713e-12)
(16999.9999974 1.93983408125e-09 -1.59544788473e-12)
(16999.9999974 1.96734025217e-09 -1.58585282053e-12)
(16999.9999974 1.99435064044e-09 -1.57525446478e-12)
(16999.9999974 2.02087134674e-09 -1.56523345143e-12)
(16999.9999974 2.04690861381e-09 -1.55549169947e-12)
(16999.9999974 2.07246890289e-09 -1.54488115747e-12)
(16999.9999974 2.09755836135e-09 -1.53424133015e-12)
(16999.9999974 2.12218347313e-09 -1.52463946869e-12)
(16999.9999974 2.14635038618e-09 -1.51514787366e-12)
(16999.9999974 2.17006583095e-09 -1.50556203669e-12)
(16999.9999974 2.19333609716e-09 -1.49680951114e-12)
(16999.9999974 2.21617266167e-09 -1.48922053008e-12)
(16999.9999974 2.23890576572e-09 -1.5706812599e-12)
(16999.9999974 2.28067268271e-09 -6.87664902877e-12)
(16999.9999974 3.46474950478e-09 -3.13586323611e-10)
(16999.999996 7.14548863346e-08 -1.67604687096e-08)
(16999.9999153 3.98813093531e-06 -9.45052688615e-07)
(16999.9950239 0.000235987460152 -1.96648853735e-05)
(16999.725631 0.0125463277909 -0.000225230847076)
(16974.3298549 1.17024240981 -0.00369108173715)
(16724.0117011 10.5022487599 -0.0123411834077)
(15164.842971 67.8438507679 -0.00959171223825)
(11683.1832191 190.928458433 0.000548702523449)
(7749.6341257 333.033256052 0.00341069228151)
(4585.54362797 451.214392672 0.00271584187601)
(2553.61446482 533.396237247 0.00185810738075)
(1500.18129283 584.16250187 0.00118045114096)
(1077.36229058 613.49307917 0.000743637509891)
(935.179524506 632.323984371 0.000546161457581)
(877.029362903 647.584527193 0.00049527608772)
(838.755670551 661.710309694 0.000497590998078)
(805.222048384 675.279262542 0.000511280801167)
(773.344011043 688.420811072 0.00052437806154)
(742.453522516 701.174119063 0.000534064863218)
(712.370946164 713.561315675 0.000539873161268)
(683.037297768 725.599949086 0.000541851631054)
(654.424649355 737.307314689 0.000540186410491)
(626.504258844 748.701150563 0.000535100379203)
(599.247813158 759.798907042 0.000526771968943)
(572.627268077 770.617697102 0.000515293109328)
(546.620476942 781.173367749 0.00050067475375)
(521.200637352 791.480697617 0.000482840886096)
(496.345894276 801.552298979 0.000461611748517)
(472.031231057 811.399173654 0.000436736171382)
(448.217563559 821.029135689 0.000407935558908)
(424.891928934 830.443908847 0.000374894638291)
(402.064740046 839.640178233 0.00033726709326)
(379.714437673 848.613016592 0.000294698658327)
(357.788685888 857.354804325 0.000246803505095)
(336.267306252 865.852177262 0.000193205702159)
(315.173739542 874.083781243 0.000133648712205)
(294.543184993 882.021316787 6.79574075439e-05)
(274.373814971 889.634753578 -3.85527221646e-06)
(254.610287266 896.897644094 -8.15204985492e-05)
(235.197713448 903.768764799 -0.000164813129956)
(216.133987556 910.218464385 -0.000253280045027)
(197.548463122 916.199932057 -0.000345887297332)
(179.286494158 921.682004224 -0.000441278032047)
(161.304793852 926.631896905 -0.000537796132025)
(143.732805199 931.006423793 -0.000633346763528)
(126.474144835 934.779972827 -0.000725500510499)
(109.562269952 937.924527984 -0.000811675745136)
(93.0288787121 940.418498946 -0.000889366019439)
(76.8665795165 942.249573551 -0.000954939445738)
(68.9565827444 943.19014066 -0.000985904228751)
(16999.999998 1.08836656933e-09 -7.81271607892e-13)
(16999.999998 1.10696132029e-09 -7.85995682439e-13)
(16999.999998 1.12524299383e-09 -7.90502025446e-13)
(16999.999998 1.14321475869e-09 -7.94778947322e-13)
(16999.999998 1.16087966115e-09 -7.99845670227e-13)
(16999.999998 1.17824106086e-09 -8.03729665341e-13)
(16999.999998 1.19530240938e-09 -8.0744116586e-13)
(16999.999998 1.2120668711e-09 -8.10845859808e-13)
(16999.999998 1.22853745167e-09 -8.1442349262e-13)
(16999.999998 1.24471738414e-09 -8.17105628276e-13)
(16999.999998 1.26061001288e-09 -8.20229909196e-13)
(16999.999998 1.27621909769e-09 -8.23482304851e-13)
(16999.999998 1.29154784922e-09 -8.26140060433e-13)
(16999.999998 1.30659923323e-09 -8.2927389695e-13)
(16999.999998 1.32137689939e-09 -8.31887376621e-13)
(16999.999998 1.33588512296e-09 -8.3482180245e-13)
(16999.999998 1.35016479392e-09 -8.40006018626e-13)
(16999.999998 1.36646866595e-09 -9.99899629954e-13)
(16999.999998 1.52050843403e-09 -1.02376870845e-11)
(16999.9999979 9.98293434749e-09 -5.43375012307e-10)
(16999.9999911 5.13107807257e-07 -2.88212766026e-08)
(16999.9995695 3.15043872527e-05 -1.64652644334e-06)
(16999.9758364 0.00174712739839 -2.12112326e-05)
(16997.7837148 0.163848723665 -0.000250806926024)
(16947.8167281 3.25771414851 -0.00250223793569)
(16424.4611182 34.5268830775 -0.00529992104076)
(14121.4510471 172.322147492 -0.00209479382194)
(10241.836464 405.281803132 0.00110270335547)
(6494.64911535 629.675251177 0.00132058643997)
(3735.98818757 795.989166628 0.000954714269307)
(2090.65193341 897.49366359 0.000620784473508)
(1310.62599072 948.167848096 0.000380071399705)
(1024.04053607 968.846455416 0.000248770136619)
(924.957069642 977.785619969 0.000207855766497)
(875.610627176 983.689971847 0.000211351461792)
(837.800799318 989.045435508 0.000227522587585)
(803.157047107 994.394162581 0.00024507777091)
(770.084811753 999.829206011 0.000261133848452)
(738.217558034 1005.36288918 0.000274993040192)
(707.420619795 1010.99213056 0.00028647442875)
(677.628260356 1016.70941325 0.00029551762401)
(648.799773113 1022.50500823 0.000302081430152)
(620.891831283 1028.37013553 0.000306110542226)
(593.864798326 1034.29688748 0.000307528284889)
(567.67847372 1040.27824819 0.000306234391516)
(542.296988768 1046.30735295 0.000302102421496)
(517.683653134 1052.37704826 0.000294986171756)
(493.80840792 1058.47886612 0.000284730097644)
(470.626819542 1064.60327846 0.000271172238801)
(448.067749718 1070.74164742 0.000254153854456)
(426.094251497 1076.88102501 0.00023352899464)
(404.716280485 1083.002348 0.000209156582971)
(383.931016924 1089.08603231 0.00018089321527)
(363.704601449 1095.11165217 0.000148676799373)
(343.988692377 1101.05910277 0.000112594339509)
(324.738447253 1106.89420244 7.27516124511e-05)
(305.959504202 1112.58775929 2.92529333275e-05)
(287.76500026 1118.0988809 -1.76631965803e-05)
(269.960978317 1123.40814131 -6.7611545939e-05)
(252.466367753 1128.48691053 -0.000120075867072)
(235.420389202 1133.28474834 -0.000174370887771)
(218.763888395 1137.7687496 -0.000229720093304)
(202.514616089 1141.90058284 -0.000285322906501)
(186.660386233 1145.65454216 -0.000340226907253)
(171.151253257 1149.00370794 -0.000393332340102)
(155.936449182 1151.92667701 -0.000443562470486)
(141.00355615 1154.4031166 -0.000489890289272)
(126.377671269 1156.41431618 -0.0005313556812)
(112.097392546 1157.94610776 -0.000566781239048)
(105.098402423 1158.7204478 -0.000583510521196)
(16999.9999984 7.09887653498e-10 -3.26542322538e-13)
(16999.9999984 7.22121067438e-10 -3.3050788925e-13)
(16999.9999984 7.34153504123e-10 -3.34229512334e-13)
(16999.9999984 7.45986239744e-10 -3.37869485515e-13)
(16999.9999984 7.57621019028e-10 -3.41515935269e-13)
(16999.9999984 7.69059667347e-10 -3.45413691484e-13)
(16999.9999984 7.80304563968e-10 -3.49104978725e-13)
(16999.9999984 7.9135760709e-10 -3.5242219547e-13)
(16999.9999984 8.02221047662e-10 -3.55657214713e-13)
(16999.9999984 8.1289646283e-10 -3.59193248962e-13)
(16999.9999984 8.23385490702e-10 -3.62281075472e-13)
(16999.9999984 8.33689987302e-10 -3.65374802608e-13)
(16999.9999984 8.43812060445e-10 -3.68226123651e-13)
(16999.9999984 8.5375399387e-10 -3.71200348561e-13)
(16999.9999984 8.63517924613e-10 -3.73987835901e-13)
(16999.9999984 8.73109014099e-10 -3.76692423508e-13)
(16999.9999984 8.82708507869e-10 -3.83094530543e-13)
(16999.9999984 9.03160185913e-10 -6.0221047277e-13)
(16999.9999984 1.58680703095e-09 -1.30195725942e-11)
(16999.999998 4.21914652904e-08 -7.1454609491e-10)
(16999.9999732 2.46230663221e-06 -3.71334604172e-08)
(16999.9984231 0.000153070996296 -2.03958830322e-06)
(16999.9118638 0.00845874962778 -2.20915856673e-05)
(16991.3565874 0.838634544904 -0.000316227412246)
(16874.6958088 10.7771833144 -0.00191977657361)
(15913.2652406 92.2834294451 -0.00254951115841)
(13014.1589277 333.662000047 -0.000423943757457)
(9064.76154032 663.78060784 0.00067288713181)
(5570.76751855 953.873092516 0.000583655179429)
(3164.83951487 1152.22797822 0.000401281333534)
(1819.9518286 1261.56965807 0.000251868470065)
(1231.57139835 1306.65446693 0.000151095947294)
(1027.2377806 1318.34469217 0.000103087156687)
(950.792025859 1318.93816396 9.27299926007e-05)
(905.679614522 1317.11525798 9.8639234741e-05)
(868.065826007 1315.05065344 0.000109228105674)
(832.860874614 1313.21094108 0.000120735940252)
(799.157917112 1311.67512035 0.000132021925497)
(766.733776332 1310.45832736 0.000142599681345)
(735.490123134 1309.56269344 0.000152165226878)
(705.355018335 1308.98655706 0.000160484559258)
(676.267180563 1308.72533541 0.000167357808445)
(648.185901522 1308.77084028 0.000172601646949)
(621.078968902 1309.11267198 0.000176038298629)
(594.913393417 1309.73969095 0.000177490138881)
(569.654137709 1310.64088325 0.000176782770959)
(545.253821026 1311.8049658 0.000173751494543)
(521.650850433 1313.22080903 0.000168247635931)
(498.787905643 1314.87503009 0.000160127970655)
(476.621640783 1316.75151862 0.000149273857147)
(455.130683114 1318.83497686 0.000135626831496)
(434.340423576 1321.0922387 0.000119137459303)
(414.236096452 1323.50207413 9.97639608002e-05)
(394.79206919 1326.04013689 7.75488168492e-05)
(375.745991575 1328.70309205 5.26146683341e-05)
(357.106116406 1331.46006674 2.51296019037e-05)
(339.149203823 1334.24977525 -4.67429569249e-06)
(321.839903416 1337.04262909 -3.65076303778e-05)
(305.06507554 1339.81356566 -7.00335631939e-05)
(288.645909103 1342.55178323 -0.000104818587684)
(272.526053371 1345.22690801 -0.000140323373981)
(256.795125568 1347.79916067 -0.000175965003121)
(241.531092835 1350.22393615 -0.000211174292863)
(226.70837748 1352.47837069 -0.000245377885951)
(212.246847493 1354.54568874 -0.000277961228577)
(198.088758616 1356.40958511 -0.000308315381316)
(184.213899714 1358.05384438 -0.00033588176375)
(170.628780877 1359.46374859 -0.000360163022732)
(157.355087906 1360.62772897 -0.000380647574861)
(150.818418556 1361.21329673 -0.000390330678875)
(16999.9999987 4.90207077793e-10 -1.45410253059e-13)
(16999.9999987 4.98693682272e-10 -1.4765002381e-13)
(16999.9999987 5.07042201175e-10 -1.49633297517e-13)
(16999.9999987 5.15253745702e-10 -1.51156198886e-13)
(16999.9999987 5.23329714732e-10 -1.53435375073e-13)
(16999.9999987 5.31270906653e-10 -1.55542493363e-13)
(16999.9999987 5.39078686473e-10 -1.56820244457e-13)
(16999.9999987 5.46754466419e-10 -1.58691917472e-13)
(16999.9999987 5.54299854081e-10 -1.60787867616e-13)
(16999.9999987 5.61716299904e-10 -1.62648477417e-13)
(16999.9999987 5.69004738387e-10 -1.64752888453e-13)
(16999.9999987 5.76166870786e-10 -1.66420671937e-13)
(16999.9999987 5.83203721452e-10 -1.68568120731e-13)
(16999.9999987 5.90116596243e-10 -1.70244835362e-13)
(16999.9999987 5.96907166002e-10 -1.71399287119e-13)
(16999.9999987 6.03586884287e-10 -1.72932617265e-13)
(16999.9999987 6.10748130221e-10 -1.79490227372e-13)
(16999.9999987 6.53696204498e-10 -4.62311876686e-13)
(16999.9999987 2.83105447568e-09 -1.70493986922e-11)
(16999.9999976 1.31662992188e-07 -9.42735685865e-10)
(16999.9999347 7.69251658058e-06 -5.26744920628e-08)
(16999.9960753 0.000468738756617 -1.66283249395e-06)
(16999.7823678 0.0257219267654 -1.8177154869e-05)
(16979.1884546 2.46502272377 -0.000297069252799)
(16769.7677172 25.4652228839 -0.00111590201149)
(15372.4800099 177.891522336 -0.00097501319834)
(12036.5308614 534.749110372 9.69955999577e-06)
(8111.89118947 952.062557697 0.000322873031143)
(4886.50362988 1291.39391403 0.00025182930894)
(2781.98127741 1508.68079303 0.000165538621645)
(1672.37706658 1617.62157687 9.95494609301e-05)
(1219.08920672 1654.14582818 5.88200285229e-05)
(1065.12455723 1657.21494047 4.28405415617e-05)
(1001.09496742 1650.52514681 4.21187423853e-05)
(958.115111924 1642.02528711 4.71927703123e-05)
(920.454833215 1633.51520648 5.38847933639e-05)
(884.789320252 1625.38587657 6.09657611842e-05)
(850.548799721 1617.6912609 6.8046986178e-05)
(817.583223619 1610.44246448 7.48978254608e-05)
(785.821577859 1603.64256494 8.13057251905e-05)
(755.214723633 1597.29264602 8.7069949275e-05)
(725.713614227 1591.39290059 9.19977182938e-05)
(697.265619111 1585.9422583 9.59019334027e-05)
(669.828516286 1580.93682076 9.85886904039e-05)
(643.383285548 1576.36988787 9.98738686828e-05)
(617.900431271 1572.237491 9.96095589992e-05)
(593.322643645 1568.52387247 9.76490253092e-05)
(569.596045239 1565.22227534 9.38367420607e-05)
(546.663221491 1562.32369025 8.805124645e-05)
(524.566926832 1559.80591598 8.02098740976e-05)
(503.120793552 1557.67200029 7.02612982176e-05)
(482.301509639 1555.90361925 5.81926440225e-05)
(462.270700408 1554.45587596 4.40397518196e-05)
(442.906029632 1553.31824831 2.7872830201e-05)
(424.131019362 1552.47188163 9.7899600801e-06)
(405.902767952 1551.9006447 -1.00436688758e-05)
(388.253872977 1551.5710143 -3.13856704956e-05)
(371.218084744 1551.45275171 -5.39448429501e-05)
(354.730529882 1551.51447362 -7.74102544327e-05)
(338.67938585 1551.74297086 -0.000101444563545)
(323.081713037 1552.11036378 -0.000125658991749)
(307.802507932 1552.6069006 -0.00014963332146)
(292.901460841 1553.20033824 -0.000172941135073)
(278.549181223 1553.84520222 -0.000195152564782)
(264.585018678 1554.54011345 -0.000215849849412)
(250.924843545 1555.27676326 -0.000234638041634)
(237.544532845 1556.04237927 -0.000251155396672)
(224.465411277 1556.82195098 -0.000265085915417)
(211.734620189 1557.60087777 -0.000276146347546)
(205.428164271 1557.99455641 -0.000281255457952)
(16999.9999989 3.54289672626e-10 -6.67276452414e-14)
(16999.9999989 3.60442297534e-10 -6.75294806796e-14)
(16999.9999989 3.66496164704e-10 -6.87772493391e-14)
(16999.9999989 3.72451545703e-10 -6.9600824654e-14)
(16999.9999989 3.78308930071e-10 -7.04726963917e-14)
(16999.9999989 3.84069202831e-10 -7.20603274586e-14)
(16999.9999989 3.89733490211e-10 -7.30894078197e-14)
(16999.9999989 3.95302378623e-10 -7.38149508856e-14)
(16999.9999989 4.00777013241e-10 -7.44666990134e-14)
(16999.9999989 4.06158463419e-10 -7.57022230137e-14)
(16999.9999989 4.11447584917e-10 -7.66425306047e-14)
(16999.9999989 4.16644973567e-10 -7.77653697905e-14)
(16999.9999989 4.21752275807e-10 -7.90083572593e-14)
(16999.9999989 4.2676998868e-10 -7.98261012342e-14)
(16999.9999989 4.3169966956e-10 -8.1059207955e-14)
(16999.9999989 4.36568437099e-10 -8.15524297682e-14)
(16999.9999989 4.42953108483e-10 -8.95862776875e-14)
(16999.9999989 5.48084547112e-10 -4.90155460684e-13)
(16999.9999989 6.73871517863e-09 -2.34113186237e-11)
(16999.9999962 3.85002663669e-07 -1.23827364901e-09)
(16999.9998326 2.38262669996e-05 -7.01101034553e-08)
(16999.9900978 0.00141264475065 -1.15810064637e-06)
(16999.2186007 0.111969695485 -1.46550040407e-05)
(16966.1381833 4.71621060446 -0.000212491273734)
(16629.629799 49.766509191 -0.00058890844898)
(14793.5828401 292.065135614 -0.000345508766523)
(11159.7123703 764.324276819 7.59757207447e-05)
(7332.58363552 1256.79939161 0.000145224672298)
(4369.91887602 1632.44831699 0.000103776987766)
(2525.00025755 1859.31274786 6.44029274881e-05)
(1603.52542472 1962.83968317 3.62683727755e-05)
(1248.30661356 1989.76107118 2.09141543514e-05)
(1126.89233958 1984.91811849 1.66685455303e-05)
(1070.05053689 1971.77678181 1.83520845911e-05)
(1027.87215513 1957.34816277 2.20231608552e-05)
(989.771053895 1943.10037607 2.62233019685e-05)
(953.621193173 1929.32283829 3.05497096348e-05)
(918.799298682 1916.09360919 3.48520458866e-05)
(885.252147528 1903.41051006 3.90145910554e-05)
(852.927505569 1891.27329245 4.29101452202e-05)
(821.779110126 1879.6829508 4.64001154081e-05)
(791.743066702 1868.64333023 4.93375946274e-05)
(762.772709055 1858.15590614 5.15696460212e-05)
(734.870849841 1848.21476102 5.29423531118e-05)
(708.103515543 1838.80345559 5.33075831427e-05)
(682.216422277 1829.95033401 5.2526875865e-05)
(657.11207964 1821.65986534 5.04737484334e-05)
(632.943492831 1813.89872662 4.70380019756e-05)
(609.648789564 1806.66460526 4.21337606219e-05)
(587.179852417 1799.9516793 3.57002946984e-05)
(565.478524862 1793.75051041 2.77006457049e-05)
(544.536437593 1788.05248389 1.81414822678e-05)
(524.324044682 1782.84357557 7.07904070848e-06)
(504.783775025 1778.10560434 -5.4033113676e-06)
(485.840191324 1773.83269605 -1.91910799388e-05)
(467.507390851 1770.00309733 -3.41213863447e-05)
(449.963540058 1766.57007474 -4.99858622562e-05)
(432.935547828 1763.54970748 -6.65387968051e-05)
(416.288162943 1760.93798795 -8.35066539149e-05)
(400.201059196 1758.68591842 -0.000100589260827)
(384.592787575 1756.78574471 -0.000117468210308)
(369.471065373 1755.21504515 -0.00013381368943)
(354.868128065 1753.95823696 -0.000149285104528)
(340.748210718 1752.99387483 -0.00016354760213)
(327.026151091 1752.31990594 -0.000176285182867)
(313.627169891 1751.93244865 -0.000187202566995)
(300.53109569 1751.82183772 -0.000196032922565)
(287.764308772 1751.97373397 -0.00020254625292)
(275.370324702 1752.37302477 -0.000206555268895)
(269.205516444 1752.57923896 -0.000208191491761)
(16999.9999991 2.6580782447e-10 -2.97417121794e-14)
(16999.9999991 2.70436121924e-10 -3.03992000466e-14)
(16999.9999991 2.7498909113e-10 -3.09437488454e-14)
(16999.9999991 2.7946820703e-10 -3.15185764052e-14)
(16999.9999991 2.83873871195e-10 -3.13953679474e-14)
(16999.9999991 2.8820638969e-10 -3.18556818983e-14)
(16999.9999991 2.92466717773e-10 -3.22846723093e-14)
(16999.9999991 2.96656171765e-10 -3.29078824481e-14)
(16999.9999991 3.0077497391e-10 -3.31660970101e-14)
(16999.9999991 3.04823948073e-10 -3.36963487744e-14)
(16999.9999991 3.08803569608e-10 -3.42625706874e-14)
(16999.9999991 3.12714860054e-10 -3.45526239684e-14)
(16999.9999991 3.16558110057e-10 -3.51134906486e-14)
(16999.9999991 3.20334242961e-10 -3.55636460588e-14)
(16999.9999991 3.24044846099e-10 -3.63736556313e-14)
(16999.9999991 3.27771378793e-10 -3.74354769734e-14)
(16999.9999991 3.36432594603e-10 -4.58173923885e-14)
(16999.9999991 6.46809449277e-10 -5.00237221181e-13)
(16999.999999 1.91380315226e-08 -2.64152160001e-11)
(16999.9999923 1.12257252015e-06 -1.38217545161e-09)
(16999.9995839 6.90822778006e-05 -7.76240324436e-08)
(16999.9765299 0.00388604414224 -1.01824324767e-06)
(16997.8585955 0.356716974986 -1.19112806354e-05)
(16948.8311163 8.13494715983 -0.000116615904509)
(16436.2111543 87.5281425984 -0.000239240825108)
(14174.8816828 435.710917447 -9.4961545066e-05)
(10361.8654137 1017.27513138 4.04620983091e-05)
(6681.08568548 1571.93925901 4.611730731e-05)
(3971.10082198 1972.63859394 3.02144447156e-05)
(2354.48212448 2201.57301575 1.72865122951e-05)
(1588.37409981 2296.15821 8.95340992954e-06)
(1306.55073506 2313.31508226 5.40063168331e-06)
(1206.894403 2301.41091262 5.50391809022e-06)
(1154.30897151 2282.580085 7.31850047392e-06)
(1112.45108436 2262.83525683 9.66889411567e-06)
(1073.78842079 2243.4249643 1.21696802708e-05)
(1036.84746554 2224.57727576 1.46975988167e-05)
(1001.31152503 2206.34020526 1.71753598084e-05)
(967.074814684 2188.72326637 1.95256351155e-05)
(934.078166133 2171.73025004 2.16604268727e-05)
(902.276948367 2155.36286537 2.34795738536e-05)
(871.615309725 2139.62540891 2.48733822639e-05)
(842.051151537 2124.52079241 2.57263410406e-05)
(813.550099743 2110.05087442 2.59219447695e-05)
(786.063714433 2096.21833977 2.53460970481e-05)
(759.543642878 2083.02173958 2.38912812279e-05)
(733.965229224 2070.46822565 2.14626686649e-05)
(709.306044953 2058.55367601 1.79818053409e-05)
(685.530161443 2047.28048236 1.33895748522e-05)
(662.592512852 2036.64020168 7.65151473802e-06)
(640.455802366 2026.63324908 7.62080259732e-07)
(619.152732802 2017.24377601 -7.25398468572e-06)
(598.495706133 2008.49197126 -1.63384954095e-05)
(578.477869144 2000.36748606 -2.639889247e-05)
(559.241608399 1992.83515364 -3.73064104989e-05)
(540.688177916 1985.90015879 -4.88974183096e-05)
(522.778444517 1979.55304331 -6.09790360646e-05)
(505.450393862 1973.78772946 -7.33326951714e-05)
(488.66683141 1968.59727982 -8.57135478486e-05)
(472.429074255 1963.96942589 -9.78527887513e-05)
(456.744440847 1959.89017796 -0.000109467112002)
(441.697844539 1956.33216426 -0.000120270713761)
(427.097166024 1953.31437322 -0.000129979868785)
(412.898610059 1950.83136961 -0.000138318487581)
(399.213717965 1948.85237509 -0.000145022770329)
(385.894891988 1947.39260459 -0.000149848172217)
(372.93243105 1946.44469346 -0.000152577106495)
(360.353485935 1945.9951662 -0.000153025126419)
(348.185646625 1946.03033983 -0.000151055016801)
(342.113690272 1946.05869978 -0.000149734918154)
(16999.9999992 2.05763308238e-10 -1.20516843912e-14)
(16999.9999992 2.09354357012e-10 -1.22089873032e-14)
(16999.9999992 2.12887166309e-10 -1.25308359474e-14)
(16999.9999992 2.16362457355e-10 -1.2807205261e-14)
(16999.9999992 2.19780561135e-10 -1.30169227136e-14)
(16999.9999992 2.23140912201e-10 -1.34929593072e-14)
(16999.9999992 2.26444969051e-10 -1.35208770317e-14)
(16999.9999992 2.29693095966e-10 -1.39771557964e-14)
(16999.9999992 2.32885914734e-10 -1.42772151492e-14)
(16999.9999992 2.36024350617e-10 -1.46856942161e-14)
(16999.9999992 2.39108897248e-10 -1.50267544209e-14)
(16999.9999992 2.42140357657e-10 -1.51232331947e-14)
(16999.9999992 2.45119233187e-10 -1.53854735538e-14)
(16999.9999992 2.4804653274e-10 -1.56818240631e-14)
(16999.9999992 2.50925591767e-10 -1.60909191673e-14)
(16999.9999992 2.53968874499e-10 -1.63402349783e-14)
(16999.9999992 2.70082622023e-10 -2.10922187351e-14)
(16999.9999992 1.08639176058e-09 -2.5084528269e-13)
(16999.9999989 5.07916874502e-08 -1.19691681168e-11)
(16999.9999831 3.05560803875e-06 -5.58699371303e-10)
(16999.9989902 0.000191140034884 -2.80315004587e-08)
(16999.943267 0.010694284251 -2.70139819069e-07)
(16994.5461028 1.03321220917 -2.68376902202e-06)
(16906.8212903 16.8173316431 -1.43541246921e-05)
(16133.087864 153.62582669 -2.00212094389e-05)
(13486.3346765 617.686244305 -1.64118944859e-05)
(9629.0169445 1291.21760988 -1.53431284582e-05)
(6123.79832755 1895.23012733 -1.37068942701e-05)